V -t * -v 1.0a5 -a 0
A -t * -n 1 -p 0 -o 0x7fffffff -c 30 -a 1
A -t * -h 1 -m 1073741823 -s 0
c -t * -i 1 -n Blue
c -t * -i 2 -n Red
n -t * -a 4 -s 4 -S UP -v circle -c black -i black
n -t * -a 0 -s 0 -S UP -v circle -c black -i black
n -t * -a 5 -s 5 -S UP -v circle -c black -i black
n -t * -a 1 -s 1 -S UP -v square -c black -i black
n -t * -a 6 -s 6 -S UP -v circle -c black -i black
n -t * -a 2 -s 2 -S UP -v circle -c black -i black
n -t * -a 7 -s 7 -S UP -v circle -c black -i black
n -t * -a 3 -s 3 -S UP -v circle -c black -i black
l -t * -s 0 -d 2 -S UP -r 1000000 -D 0.01 -c black -o right-down
l -t * -s 1 -d 2 -S UP -r 1000000 -D 0.01 -c black -o right-up
l -t * -s 2 -d 3 -S UP -r 500000 -D 0.01 -c black -o right
l -t * -s 3 -d 4 -S UP -r 1000000 -D 0.01 -c black -o right-up
l -t * -s 4 -d 6 -S UP -r 1000000 -D 0.01 -c black -o right
l -t * -s 5 -d 7 -S UP -r 1000000 -D 0.01 -c black -o right
l -t * -s 3 -d 5 -S UP -r 1000000 -D 0.01 -c black -o right-down
+ -t 0.1 -s 0 -d 2 -p tcp -e 40 -c 1 -i 0 -a 1 -x {0.0 6.0 0 ------- null}
- -t 0.1 -s 0 -d 2 -p tcp -e 40 -c 1 -i 0 -a 1 -x {0.0 6.0 0 ------- null}
h -t 0.1 -s 0 -d 2 -p tcp -e 40 -c 1 -i 0 -a 1 -x {0.0 6.0 -1 ------- null}
r -t 0.11032 -s 0 -d 2 -p tcp -e 40 -c 1 -i 0 -a 1 -x {0.0 6.0 0 ------- null}
+ -t 0.11032 -s 2 -d 3 -p tcp -e 40 -c 1 -i 0 -a 1 -x {0.0 6.0 0 ------- null}
- -t 0.11032 -s 2 -d 3 -p tcp -e 40 -c 1 -i 0 -a 1 -x {0.0 6.0 0 ------- null}
h -t 0.11032 -s 2 -d 3 -p tcp -e 40 -c 1 -i 0 -a 1 -x {0.0 6.0 -1 ------- null}
r -t 0.12096 -s 2 -d 3 -p tcp -e 40 -c 1 -i 0 -a 1 -x {0.0 6.0 0 ------- null}
+ -t 0.12096 -s 3 -d 4 -p tcp -e 40 -c 1 -i 0 -a 1 -x {0.0 6.0 0 ------- null}
- -t 0.12096 -s 3 -d 4 -p tcp -e 40 -c 1 -i 0 -a 1 -x {0.0 6.0 0 ------- null}
h -t 0.12096 -s 3 -d 4 -p tcp -e 40 -c 1 -i 0 -a 1 -x {0.0 6.0 -1 ------- null}
r -t 0.13128 -s 3 -d 4 -p tcp -e 40 -c 1 -i 0 -a 1 -x {0.0 6.0 0 ------- null}
+ -t 0.13128 -s 4 -d 6 -p tcp -e 40 -c 1 -i 0 -a 1 -x {0.0 6.0 0 ------- null}
- -t 0.13128 -s 4 -d 6 -p tcp -e 40 -c 1 -i 0 -a 1 -x {0.0 6.0 0 ------- null}
h -t 0.13128 -s 4 -d 6 -p tcp -e 40 -c 1 -i 0 -a 1 -x {0.0 6.0 -1 ------- null}
r -t 0.1416 -s 4 -d 6 -p tcp -e 40 -c 1 -i 0 -a 1 -x {0.0 6.0 0 ------- null}
+ -t 0.1416 -s 6 -d 4 -p ack -e 40 -c 1 -i 1 -a 1 -x {6.0 0.0 0 ------- null}
- -t 0.1416 -s 6 -d 4 -p ack -e 40 -c 1 -i 1 -a 1 -x {6.0 0.0 0 ------- null}
h -t 0.1416 -s 6 -d 4 -p ack -e 40 -c 1 -i 1 -a 1 -x {6.0 0.0 -1 ------- null}
r -t 0.15192 -s 6 -d 4 -p ack -e 40 -c 1 -i 1 -a 1 -x {6.0 0.0 0 ------- null}
+ -t 0.15192 -s 4 -d 3 -p ack -e 40 -c 1 -i 1 -a 1 -x {6.0 0.0 0 ------- null}
- -t 0.15192 -s 4 -d 3 -p ack -e 40 -c 1 -i 1 -a 1 -x {6.0 0.0 0 ------- null}
h -t 0.15192 -s 4 -d 3 -p ack -e 40 -c 1 -i 1 -a 1 -x {6.0 0.0 -1 ------- null}
r -t 0.16224 -s 4 -d 3 -p ack -e 40 -c 1 -i 1 -a 1 -x {6.0 0.0 0 ------- null}
+ -t 0.16224 -s 3 -d 2 -p ack -e 40 -c 1 -i 1 -a 1 -x {6.0 0.0 0 ------- null}
- -t 0.16224 -s 3 -d 2 -p ack -e 40 -c 1 -i 1 -a 1 -x {6.0 0.0 0 ------- null}
h -t 0.16224 -s 3 -d 2 -p ack -e 40 -c 1 -i 1 -a 1 -x {6.0 0.0 -1 ------- null}
r -t 0.17288 -s 3 -d 2 -p ack -e 40 -c 1 -i 1 -a 1 -x {6.0 0.0 0 ------- null}
+ -t 0.17288 -s 2 -d 0 -p ack -e 40 -c 1 -i 1 -a 1 -x {6.0 0.0 0 ------- null}
- -t 0.17288 -s 2 -d 0 -p ack -e 40 -c 1 -i 1 -a 1 -x {6.0 0.0 0 ------- null}
h -t 0.17288 -s 2 -d 0 -p ack -e 40 -c 1 -i 1 -a 1 -x {6.0 0.0 -1 ------- null}
r -t 0.1832 -s 2 -d 0 -p ack -e 40 -c 1 -i 1 -a 1 -x {6.0 0.0 0 ------- null}
+ -t 0.1832 -s 0 -d 2 -p tcp -e 1040 -c 1 -i 2 -a 1 -x {0.0 6.0 1 ------- null}
- -t 0.1832 -s 0 -d 2 -p tcp -e 1040 -c 1 -i 2 -a 1 -x {0.0 6.0 1 ------- null}
h -t 0.1832 -s 0 -d 2 -p tcp -e 1040 -c 1 -i 2 -a 1 -x {0.0 6.0 -1 ------- null}
+ -t 0.1832 -s 0 -d 2 -p tcp -e 1040 -c 1 -i 3 -a 1 -x {0.0 6.0 2 ------- null}
- -t 0.19152 -s 0 -d 2 -p tcp -e 1040 -c 1 -i 3 -a 1 -x {0.0 6.0 2 ------- null}
h -t 0.19152 -s 0 -d 2 -p tcp -e 1040 -c 1 -i 3 -a 1 -x {0.0 6.0 -1 ------- null}
r -t 0.20152 -s 0 -d 2 -p tcp -e 1040 -c 1 -i 2 -a 1 -x {0.0 6.0 1 ------- null}
+ -t 0.20152 -s 2 -d 3 -p tcp -e 1040 -c 1 -i 2 -a 1 -x {0.0 6.0 1 ------- null}
- -t 0.20152 -s 2 -d 3 -p tcp -e 1040 -c 1 -i 2 -a 1 -x {0.0 6.0 1 ------- null}
h -t 0.20152 -s 2 -d 3 -p tcp -e 1040 -c 1 -i 2 -a 1 -x {0.0 6.0 -1 ------- null}
r -t 0.20984 -s 0 -d 2 -p tcp -e 1040 -c 1 -i 3 -a 1 -x {0.0 6.0 2 ------- null}
+ -t 0.20984 -s 2 -d 3 -p tcp -e 1040 -c 1 -i 3 -a 1 -x {0.0 6.0 2 ------- null}
- -t 0.21816 -s 2 -d 3 -p tcp -e 1040 -c 1 -i 3 -a 1 -x {0.0 6.0 2 ------- null}
h -t 0.21816 -s 2 -d 3 -p tcp -e 1040 -c 1 -i 3 -a 1 -x {0.0 6.0 -1 ------- null}
r -t 0.22816 -s 2 -d 3 -p tcp -e 1040 -c 1 -i 2 -a 1 -x {0.0 6.0 1 ------- null}
+ -t 0.22816 -s 3 -d 4 -p tcp -e 1040 -c 1 -i 2 -a 1 -x {0.0 6.0 1 ------- null}
- -t 0.22816 -s 3 -d 4 -p tcp -e 1040 -c 1 -i 2 -a 1 -x {0.0 6.0 1 ------- null}
h -t 0.22816 -s 3 -d 4 -p tcp -e 1040 -c 1 -i 2 -a 1 -x {0.0 6.0 -1 ------- null}
r -t 0.2448 -s 2 -d 3 -p tcp -e 1040 -c 1 -i 3 -a 1 -x {0.0 6.0 2 ------- null}
+ -t 0.2448 -s 3 -d 4 -p tcp -e 1040 -c 1 -i 3 -a 1 -x {0.0 6.0 2 ------- null}
- -t 0.2448 -s 3 -d 4 -p tcp -e 1040 -c 1 -i 3 -a 1 -x {0.0 6.0 2 ------- null}
h -t 0.2448 -s 3 -d 4 -p tcp -e 1040 -c 1 -i 3 -a 1 -x {0.0 6.0 -1 ------- null}
r -t 0.24648 -s 3 -d 4 -p tcp -e 1040 -c 1 -i 2 -a 1 -x {0.0 6.0 1 ------- null}
+ -t 0.24648 -s 4 -d 6 -p tcp -e 1040 -c 1 -i 2 -a 1 -x {0.0 6.0 1 ------- null}
- -t 0.24648 -s 4 -d 6 -p tcp -e 1040 -c 1 -i 2 -a 1 -x {0.0 6.0 1 ------- null}
h -t 0.24648 -s 4 -d 6 -p tcp -e 1040 -c 1 -i 2 -a 1 -x {0.0 6.0 -1 ------- null}
r -t 0.26312 -s 3 -d 4 -p tcp -e 1040 -c 1 -i 3 -a 1 -x {0.0 6.0 2 ------- null}
+ -t 0.26312 -s 4 -d 6 -p tcp -e 1040 -c 1 -i 3 -a 1 -x {0.0 6.0 2 ------- null}
- -t 0.26312 -s 4 -d 6 -p tcp -e 1040 -c 1 -i 3 -a 1 -x {0.0 6.0 2 ------- null}
h -t 0.26312 -s 4 -d 6 -p tcp -e 1040 -c 1 -i 3 -a 1 -x {0.0 6.0 -1 ------- null}
r -t 0.2648 -s 4 -d 6 -p tcp -e 1040 -c 1 -i 2 -a 1 -x {0.0 6.0 1 ------- null}
+ -t 0.2648 -s 6 -d 4 -p ack -e 40 -c 1 -i 4 -a 1 -x {6.0 0.0 1 ------- null}
- -t 0.2648 -s 6 -d 4 -p ack -e 40 -c 1 -i 4 -a 1 -x {6.0 0.0 1 ------- null}
h -t 0.2648 -s 6 -d 4 -p ack -e 40 -c 1 -i 4 -a 1 -x {6.0 0.0 -1 ------- null}
r -t 0.27512 -s 6 -d 4 -p ack -e 40 -c 1 -i 4 -a 1 -x {6.0 0.0 1 ------- null}
+ -t 0.27512 -s 4 -d 3 -p ack -e 40 -c 1 -i 4 -a 1 -x {6.0 0.0 1 ------- null}
- -t 0.27512 -s 4 -d 3 -p ack -e 40 -c 1 -i 4 -a 1 -x {6.0 0.0 1 ------- null}
h -t 0.27512 -s 4 -d 3 -p ack -e 40 -c 1 -i 4 -a 1 -x {6.0 0.0 -1 ------- null}
r -t 0.28144 -s 4 -d 6 -p tcp -e 1040 -c 1 -i 3 -a 1 -x {0.0 6.0 2 ------- null}
+ -t 0.28144 -s 6 -d 4 -p ack -e 40 -c 1 -i 5 -a 1 -x {6.0 0.0 2 ------- null}
- -t 0.28144 -s 6 -d 4 -p ack -e 40 -c 1 -i 5 -a 1 -x {6.0 0.0 2 ------- null}
h -t 0.28144 -s 6 -d 4 -p ack -e 40 -c 1 -i 5 -a 1 -x {6.0 0.0 -1 ------- null}
r -t 0.28544 -s 4 -d 3 -p ack -e 40 -c 1 -i 4 -a 1 -x {6.0 0.0 1 ------- null}
+ -t 0.28544 -s 3 -d 2 -p ack -e 40 -c 1 -i 4 -a 1 -x {6.0 0.0 1 ------- null}
- -t 0.28544 -s 3 -d 2 -p ack -e 40 -c 1 -i 4 -a 1 -x {6.0 0.0 1 ------- null}
h -t 0.28544 -s 3 -d 2 -p ack -e 40 -c 1 -i 4 -a 1 -x {6.0 0.0 -1 ------- null}
r -t 0.29176 -s 6 -d 4 -p ack -e 40 -c 1 -i 5 -a 1 -x {6.0 0.0 2 ------- null}
+ -t 0.29176 -s 4 -d 3 -p ack -e 40 -c 1 -i 5 -a 1 -x {6.0 0.0 2 ------- null}
- -t 0.29176 -s 4 -d 3 -p ack -e 40 -c 1 -i 5 -a 1 -x {6.0 0.0 2 ------- null}
h -t 0.29176 -s 4 -d 3 -p ack -e 40 -c 1 -i 5 -a 1 -x {6.0 0.0 -1 ------- null}
r -t 0.29608 -s 3 -d 2 -p ack -e 40 -c 1 -i 4 -a 1 -x {6.0 0.0 1 ------- null}
+ -t 0.29608 -s 2 -d 0 -p ack -e 40 -c 1 -i 4 -a 1 -x {6.0 0.0 1 ------- null}
- -t 0.29608 -s 2 -d 0 -p ack -e 40 -c 1 -i 4 -a 1 -x {6.0 0.0 1 ------- null}
h -t 0.29608 -s 2 -d 0 -p ack -e 40 -c 1 -i 4 -a 1 -x {6.0 0.0 -1 ------- null}
r -t 0.30208 -s 4 -d 3 -p ack -e 40 -c 1 -i 5 -a 1 -x {6.0 0.0 2 ------- null}
+ -t 0.30208 -s 3 -d 2 -p ack -e 40 -c 1 -i 5 -a 1 -x {6.0 0.0 2 ------- null}
- -t 0.30208 -s 3 -d 2 -p ack -e 40 -c 1 -i 5 -a 1 -x {6.0 0.0 2 ------- null}
h -t 0.30208 -s 3 -d 2 -p ack -e 40 -c 1 -i 5 -a 1 -x {6.0 0.0 -1 ------- null}
r -t 0.3064 -s 2 -d 0 -p ack -e 40 -c 1 -i 4 -a 1 -x {6.0 0.0 1 ------- null}
+ -t 0.3064 -s 0 -d 2 -p tcp -e 1040 -c 1 -i 6 -a 1 -x {0.0 6.0 3 ------- null}
- -t 0.3064 -s 0 -d 2 -p tcp -e 1040 -c 1 -i 6 -a 1 -x {0.0 6.0 3 ------- null}
h -t 0.3064 -s 0 -d 2 -p tcp -e 1040 -c 1 -i 6 -a 1 -x {0.0 6.0 -1 ------- null}
+ -t 0.3064 -s 0 -d 2 -p tcp -e 1040 -c 1 -i 7 -a 1 -x {0.0 6.0 4 ------- null}
r -t 0.31272 -s 3 -d 2 -p ack -e 40 -c 1 -i 5 -a 1 -x {6.0 0.0 2 ------- null}
+ -t 0.31272 -s 2 -d 0 -p ack -e 40 -c 1 -i 5 -a 1 -x {6.0 0.0 2 ------- null}
- -t 0.31272 -s 2 -d 0 -p ack -e 40 -c 1 -i 5 -a 1 -x {6.0 0.0 2 ------- null}
h -t 0.31272 -s 2 -d 0 -p ack -e 40 -c 1 -i 5 -a 1 -x {6.0 0.0 -1 ------- null}
- -t 0.31472 -s 0 -d 2 -p tcp -e 1040 -c 1 -i 7 -a 1 -x {0.0 6.0 4 ------- null}
h -t 0.31472 -s 0 -d 2 -p tcp -e 1040 -c 1 -i 7 -a 1 -x {0.0 6.0 -1 ------- null}
r -t 0.32304 -s 2 -d 0 -p ack -e 40 -c 1 -i 5 -a 1 -x {6.0 0.0 2 ------- null}
+ -t 0.32304 -s 0 -d 2 -p tcp -e 1040 -c 1 -i 8 -a 1 -x {0.0 6.0 5 ------- null}
+ -t 0.32304 -s 0 -d 2 -p tcp -e 1040 -c 1 -i 9 -a 1 -x {0.0 6.0 6 ------- null}
- -t 0.32304 -s 0 -d 2 -p tcp -e 1040 -c 1 -i 8 -a 1 -x {0.0 6.0 5 ------- null}
h -t 0.32304 -s 0 -d 2 -p tcp -e 1040 -c 1 -i 8 -a 1 -x {0.0 6.0 -1 ------- null}
r -t 0.32472 -s 0 -d 2 -p tcp -e 1040 -c 1 -i 6 -a 1 -x {0.0 6.0 3 ------- null}
+ -t 0.32472 -s 2 -d 3 -p tcp -e 1040 -c 1 -i 6 -a 1 -x {0.0 6.0 3 ------- null}
- -t 0.32472 -s 2 -d 3 -p tcp -e 1040 -c 1 -i 6 -a 1 -x {0.0 6.0 3 ------- null}
h -t 0.32472 -s 2 -d 3 -p tcp -e 1040 -c 1 -i 6 -a 1 -x {0.0 6.0 -1 ------- null}
- -t 0.33136 -s 0 -d 2 -p tcp -e 1040 -c 1 -i 9 -a 1 -x {0.0 6.0 6 ------- null}
h -t 0.33136 -s 0 -d 2 -p tcp -e 1040 -c 1 -i 9 -a 1 -x {0.0 6.0 -1 ------- null}
r -t 0.33304 -s 0 -d 2 -p tcp -e 1040 -c 1 -i 7 -a 1 -x {0.0 6.0 4 ------- null}
+ -t 0.33304 -s 2 -d 3 -p tcp -e 1040 -c 1 -i 7 -a 1 -x {0.0 6.0 4 ------- null}
r -t 0.34136 -s 0 -d 2 -p tcp -e 1040 -c 1 -i 8 -a 1 -x {0.0 6.0 5 ------- null}
+ -t 0.34136 -s 2 -d 3 -p tcp -e 1040 -c 1 -i 8 -a 1 -x {0.0 6.0 5 ------- null}
- -t 0.34136 -s 2 -d 3 -p tcp -e 1040 -c 1 -i 7 -a 1 -x {0.0 6.0 4 ------- null}
h -t 0.34136 -s 2 -d 3 -p tcp -e 1040 -c 1 -i 7 -a 1 -x {0.0 6.0 -1 ------- null}
r -t 0.34968 -s 0 -d 2 -p tcp -e 1040 -c 1 -i 9 -a 1 -x {0.0 6.0 6 ------- null}
+ -t 0.34968 -s 2 -d 3 -p tcp -e 1040 -c 1 -i 9 -a 1 -x {0.0 6.0 6 ------- null}
r -t 0.35136 -s 2 -d 3 -p tcp -e 1040 -c 1 -i 6 -a 1 -x {0.0 6.0 3 ------- null}
+ -t 0.35136 -s 3 -d 4 -p tcp -e 1040 -c 1 -i 6 -a 1 -x {0.0 6.0 3 ------- null}
- -t 0.35136 -s 3 -d 4 -p tcp -e 1040 -c 1 -i 6 -a 1 -x {0.0 6.0 3 ------- null}
h -t 0.35136 -s 3 -d 4 -p tcp -e 1040 -c 1 -i 6 -a 1 -x {0.0 6.0 -1 ------- null}
- -t 0.358 -s 2 -d 3 -p tcp -e 1040 -c 1 -i 8 -a 1 -x {0.0 6.0 5 ------- null}
h -t 0.358 -s 2 -d 3 -p tcp -e 1040 -c 1 -i 8 -a 1 -x {0.0 6.0 -1 ------- null}
r -t 0.368 -s 2 -d 3 -p tcp -e 1040 -c 1 -i 7 -a 1 -x {0.0 6.0 4 ------- null}
+ -t 0.368 -s 3 -d 4 -p tcp -e 1040 -c 1 -i 7 -a 1 -x {0.0 6.0 4 ------- null}
- -t 0.368 -s 3 -d 4 -p tcp -e 1040 -c 1 -i 7 -a 1 -x {0.0 6.0 4 ------- null}
h -t 0.368 -s 3 -d 4 -p tcp -e 1040 -c 1 -i 7 -a 1 -x {0.0 6.0 -1 ------- null}
r -t 0.36968 -s 3 -d 4 -p tcp -e 1040 -c 1 -i 6 -a 1 -x {0.0 6.0 3 ------- null}
+ -t 0.36968 -s 4 -d 6 -p tcp -e 1040 -c 1 -i 6 -a 1 -x {0.0 6.0 3 ------- null}
- -t 0.36968 -s 4 -d 6 -p tcp -e 1040 -c 1 -i 6 -a 1 -x {0.0 6.0 3 ------- null}
h -t 0.36968 -s 4 -d 6 -p tcp -e 1040 -c 1 -i 6 -a 1 -x {0.0 6.0 -1 ------- null}
- -t 0.37464 -s 2 -d 3 -p tcp -e 1040 -c 1 -i 9 -a 1 -x {0.0 6.0 6 ------- null}
h -t 0.37464 -s 2 -d 3 -p tcp -e 1040 -c 1 -i 9 -a 1 -x {0.0 6.0 -1 ------- null}
r -t 0.38464 -s 2 -d 3 -p tcp -e 1040 -c 1 -i 8 -a 1 -x {0.0 6.0 5 ------- null}
+ -t 0.38464 -s 3 -d 4 -p tcp -e 1040 -c 1 -i 8 -a 1 -x {0.0 6.0 5 ------- null}
- -t 0.38464 -s 3 -d 4 -p tcp -e 1040 -c 1 -i 8 -a 1 -x {0.0 6.0 5 ------- null}
h -t 0.38464 -s 3 -d 4 -p tcp -e 1040 -c 1 -i 8 -a 1 -x {0.0 6.0 -1 ------- null}
r -t 0.38632 -s 3 -d 4 -p tcp -e 1040 -c 1 -i 7 -a 1 -x {0.0 6.0 4 ------- null}
+ -t 0.38632 -s 4 -d 6 -p tcp -e 1040 -c 1 -i 7 -a 1 -x {0.0 6.0 4 ------- null}
- -t 0.38632 -s 4 -d 6 -p tcp -e 1040 -c 1 -i 7 -a 1 -x {0.0 6.0 4 ------- null}
h -t 0.38632 -s 4 -d 6 -p tcp -e 1040 -c 1 -i 7 -a 1 -x {0.0 6.0 -1 ------- null}
r -t 0.388 -s 4 -d 6 -p tcp -e 1040 -c 1 -i 6 -a 1 -x {0.0 6.0 3 ------- null}
+ -t 0.388 -s 6 -d 4 -p ack -e 40 -c 1 -i 10 -a 1 -x {6.0 0.0 3 ------- null}
- -t 0.388 -s 6 -d 4 -p ack -e 40 -c 1 -i 10 -a 1 -x {6.0 0.0 3 ------- null}
h -t 0.388 -s 6 -d 4 -p ack -e 40 -c 1 -i 10 -a 1 -x {6.0 0.0 -1 ------- null}
r -t 0.39832 -s 6 -d 4 -p ack -e 40 -c 1 -i 10 -a 1 -x {6.0 0.0 3 ------- null}
+ -t 0.39832 -s 4 -d 3 -p ack -e 40 -c 1 -i 10 -a 1 -x {6.0 0.0 3 ------- null}
- -t 0.39832 -s 4 -d 3 -p ack -e 40 -c 1 -i 10 -a 1 -x {6.0 0.0 3 ------- null}
h -t 0.39832 -s 4 -d 3 -p ack -e 40 -c 1 -i 10 -a 1 -x {6.0 0.0 -1 ------- null}
r -t 0.40128 -s 2 -d 3 -p tcp -e 1040 -c 1 -i 9 -a 1 -x {0.0 6.0 6 ------- null}
+ -t 0.40128 -s 3 -d 4 -p tcp -e 1040 -c 1 -i 9 -a 1 -x {0.0 6.0 6 ------- null}
- -t 0.40128 -s 3 -d 4 -p tcp -e 1040 -c 1 -i 9 -a 1 -x {0.0 6.0 6 ------- null}
h -t 0.40128 -s 3 -d 4 -p tcp -e 1040 -c 1 -i 9 -a 1 -x {0.0 6.0 -1 ------- null}
r -t 0.40296 -s 3 -d 4 -p tcp -e 1040 -c 1 -i 8 -a 1 -x {0.0 6.0 5 ------- null}
+ -t 0.40296 -s 4 -d 6 -p tcp -e 1040 -c 1 -i 8 -a 1 -x {0.0 6.0 5 ------- null}
- -t 0.40296 -s 4 -d 6 -p tcp -e 1040 -c 1 -i 8 -a 1 -x {0.0 6.0 5 ------- null}
h -t 0.40296 -s 4 -d 6 -p tcp -e 1040 -c 1 -i 8 -a 1 -x {0.0 6.0 -1 ------- null}
r -t 0.40464 -s 4 -d 6 -p tcp -e 1040 -c 1 -i 7 -a 1 -x {0.0 6.0 4 ------- null}
+ -t 0.40464 -s 6 -d 4 -p ack -e 40 -c 1 -i 11 -a 1 -x {6.0 0.0 4 ------- null}
- -t 0.40464 -s 6 -d 4 -p ack -e 40 -c 1 -i 11 -a 1 -x {6.0 0.0 4 ------- null}
h -t 0.40464 -s 6 -d 4 -p ack -e 40 -c 1 -i 11 -a 1 -x {6.0 0.0 -1 ------- null}
r -t 0.40864 -s 4 -d 3 -p ack -e 40 -c 1 -i 10 -a 1 -x {6.0 0.0 3 ------- null}
+ -t 0.40864 -s 3 -d 2 -p ack -e 40 -c 1 -i 10 -a 1 -x {6.0 0.0 3 ------- null}
- -t 0.40864 -s 3 -d 2 -p ack -e 40 -c 1 -i 10 -a 1 -x {6.0 0.0 3 ------- null}
h -t 0.40864 -s 3 -d 2 -p ack -e 40 -c 1 -i 10 -a 1 -x {6.0 0.0 -1 ------- null}
r -t 0.41496 -s 6 -d 4 -p ack -e 40 -c 1 -i 11 -a 1 -x {6.0 0.0 4 ------- null}
+ -t 0.41496 -s 4 -d 3 -p ack -e 40 -c 1 -i 11 -a 1 -x {6.0 0.0 4 ------- null}
- -t 0.41496 -s 4 -d 3 -p ack -e 40 -c 1 -i 11 -a 1 -x {6.0 0.0 4 ------- null}
h -t 0.41496 -s 4 -d 3 -p ack -e 40 -c 1 -i 11 -a 1 -x {6.0 0.0 -1 ------- null}
r -t 0.41928 -s 3 -d 2 -p ack -e 40 -c 1 -i 10 -a 1 -x {6.0 0.0 3 ------- null}
+ -t 0.41928 -s 2 -d 0 -p ack -e 40 -c 1 -i 10 -a 1 -x {6.0 0.0 3 ------- null}
- -t 0.41928 -s 2 -d 0 -p ack -e 40 -c 1 -i 10 -a 1 -x {6.0 0.0 3 ------- null}
h -t 0.41928 -s 2 -d 0 -p ack -e 40 -c 1 -i 10 -a 1 -x {6.0 0.0 -1 ------- null}
r -t 0.4196 -s 3 -d 4 -p tcp -e 1040 -c 1 -i 9 -a 1 -x {0.0 6.0 6 ------- null}
+ -t 0.4196 -s 4 -d 6 -p tcp -e 1040 -c 1 -i 9 -a 1 -x {0.0 6.0 6 ------- null}
- -t 0.4196 -s 4 -d 6 -p tcp -e 1040 -c 1 -i 9 -a 1 -x {0.0 6.0 6 ------- null}
h -t 0.4196 -s 4 -d 6 -p tcp -e 1040 -c 1 -i 9 -a 1 -x {0.0 6.0 -1 ------- null}
r -t 0.42128 -s 4 -d 6 -p tcp -e 1040 -c 1 -i 8 -a 1 -x {0.0 6.0 5 ------- null}
+ -t 0.42128 -s 6 -d 4 -p ack -e 40 -c 1 -i 12 -a 1 -x {6.0 0.0 5 ------- null}
- -t 0.42128 -s 6 -d 4 -p ack -e 40 -c 1 -i 12 -a 1 -x {6.0 0.0 5 ------- null}
h -t 0.42128 -s 6 -d 4 -p ack -e 40 -c 1 -i 12 -a 1 -x {6.0 0.0 -1 ------- null}
r -t 0.42528 -s 4 -d 3 -p ack -e 40 -c 1 -i 11 -a 1 -x {6.0 0.0 4 ------- null}
+ -t 0.42528 -s 3 -d 2 -p ack -e 40 -c 1 -i 11 -a 1 -x {6.0 0.0 4 ------- null}
- -t 0.42528 -s 3 -d 2 -p ack -e 40 -c 1 -i 11 -a 1 -x {6.0 0.0 4 ------- null}
h -t 0.42528 -s 3 -d 2 -p ack -e 40 -c 1 -i 11 -a 1 -x {6.0 0.0 -1 ------- null}
r -t 0.4296 -s 2 -d 0 -p ack -e 40 -c 1 -i 10 -a 1 -x {6.0 0.0 3 ------- null}
+ -t 0.4296 -s 0 -d 2 -p tcp -e 1040 -c 1 -i 13 -a 1 -x {0.0 6.0 7 ------- null}
- -t 0.4296 -s 0 -d 2 -p tcp -e 1040 -c 1 -i 13 -a 1 -x {0.0 6.0 7 ------- null}
h -t 0.4296 -s 0 -d 2 -p tcp -e 1040 -c 1 -i 13 -a 1 -x {0.0 6.0 -1 ------- null}
+ -t 0.4296 -s 0 -d 2 -p tcp -e 1040 -c 1 -i 14 -a 1 -x {0.0 6.0 8 ------- null}
r -t 0.4316 -s 6 -d 4 -p ack -e 40 -c 1 -i 12 -a 1 -x {6.0 0.0 5 ------- null}
+ -t 0.4316 -s 4 -d 3 -p ack -e 40 -c 1 -i 12 -a 1 -x {6.0 0.0 5 ------- null}
- -t 0.4316 -s 4 -d 3 -p ack -e 40 -c 1 -i 12 -a 1 -x {6.0 0.0 5 ------- null}
h -t 0.4316 -s 4 -d 3 -p ack -e 40 -c 1 -i 12 -a 1 -x {6.0 0.0 -1 ------- null}
r -t 0.43592 -s 3 -d 2 -p ack -e 40 -c 1 -i 11 -a 1 -x {6.0 0.0 4 ------- null}
+ -t 0.43592 -s 2 -d 0 -p ack -e 40 -c 1 -i 11 -a 1 -x {6.0 0.0 4 ------- null}
- -t 0.43592 -s 2 -d 0 -p ack -e 40 -c 1 -i 11 -a 1 -x {6.0 0.0 4 ------- null}
h -t 0.43592 -s 2 -d 0 -p ack -e 40 -c 1 -i 11 -a 1 -x {6.0 0.0 -1 ------- null}
r -t 0.43792 -s 4 -d 6 -p tcp -e 1040 -c 1 -i 9 -a 1 -x {0.0 6.0 6 ------- null}
+ -t 0.43792 -s 6 -d 4 -p ack -e 40 -c 1 -i 15 -a 1 -x {6.0 0.0 6 ------- null}
- -t 0.43792 -s 6 -d 4 -p ack -e 40 -c 1 -i 15 -a 1 -x {6.0 0.0 6 ------- null}
h -t 0.43792 -s 6 -d 4 -p ack -e 40 -c 1 -i 15 -a 1 -x {6.0 0.0 -1 ------- null}
- -t 0.43792 -s 0 -d 2 -p tcp -e 1040 -c 1 -i 14 -a 1 -x {0.0 6.0 8 ------- null}
h -t 0.43792 -s 0 -d 2 -p tcp -e 1040 -c 1 -i 14 -a 1 -x {0.0 6.0 -1 ------- null}
r -t 0.44192 -s 4 -d 3 -p ack -e 40 -c 1 -i 12 -a 1 -x {6.0 0.0 5 ------- null}
+ -t 0.44192 -s 3 -d 2 -p ack -e 40 -c 1 -i 12 -a 1 -x {6.0 0.0 5 ------- null}
- -t 0.44192 -s 3 -d 2 -p ack -e 40 -c 1 -i 12 -a 1 -x {6.0 0.0 5 ------- null}
h -t 0.44192 -s 3 -d 2 -p ack -e 40 -c 1 -i 12 -a 1 -x {6.0 0.0 -1 ------- null}
r -t 0.44624 -s 2 -d 0 -p ack -e 40 -c 1 -i 11 -a 1 -x {6.0 0.0 4 ------- null}
+ -t 0.44624 -s 0 -d 2 -p tcp -e 1040 -c 1 -i 16 -a 1 -x {0.0 6.0 9 ------- null}
+ -t 0.44624 -s 0 -d 2 -p tcp -e 1040 -c 1 -i 17 -a 1 -x {0.0 6.0 10 ------- null}
- -t 0.44624 -s 0 -d 2 -p tcp -e 1040 -c 1 -i 16 -a 1 -x {0.0 6.0 9 ------- null}
h -t 0.44624 -s 0 -d 2 -p tcp -e 1040 -c 1 -i 16 -a 1 -x {0.0 6.0 -1 ------- null}
r -t 0.44792 -s 0 -d 2 -p tcp -e 1040 -c 1 -i 13 -a 1 -x {0.0 6.0 7 ------- null}
+ -t 0.44792 -s 2 -d 3 -p tcp -e 1040 -c 1 -i 13 -a 1 -x {0.0 6.0 7 ------- null}
- -t 0.44792 -s 2 -d 3 -p tcp -e 1040 -c 1 -i 13 -a 1 -x {0.0 6.0 7 ------- null}
h -t 0.44792 -s 2 -d 3 -p tcp -e 1040 -c 1 -i 13 -a 1 -x {0.0 6.0 -1 ------- null}
r -t 0.44824 -s 6 -d 4 -p ack -e 40 -c 1 -i 15 -a 1 -x {6.0 0.0 6 ------- null}
+ -t 0.44824 -s 4 -d 3 -p ack -e 40 -c 1 -i 15 -a 1 -x {6.0 0.0 6 ------- null}
- -t 0.44824 -s 4 -d 3 -p ack -e 40 -c 1 -i 15 -a 1 -x {6.0 0.0 6 ------- null}
h -t 0.44824 -s 4 -d 3 -p ack -e 40 -c 1 -i 15 -a 1 -x {6.0 0.0 -1 ------- null}
r -t 0.45256 -s 3 -d 2 -p ack -e 40 -c 1 -i 12 -a 1 -x {6.0 0.0 5 ------- null}
+ -t 0.45256 -s 2 -d 0 -p ack -e 40 -c 1 -i 12 -a 1 -x {6.0 0.0 5 ------- null}
- -t 0.45256 -s 2 -d 0 -p ack -e 40 -c 1 -i 12 -a 1 -x {6.0 0.0 5 ------- null}
h -t 0.45256 -s 2 -d 0 -p ack -e 40 -c 1 -i 12 -a 1 -x {6.0 0.0 -1 ------- null}
- -t 0.45456 -s 0 -d 2 -p tcp -e 1040 -c 1 -i 17 -a 1 -x {0.0 6.0 10 ------- null}
h -t 0.45456 -s 0 -d 2 -p tcp -e 1040 -c 1 -i 17 -a 1 -x {0.0 6.0 -1 ------- null}
r -t 0.45624 -s 0 -d 2 -p tcp -e 1040 -c 1 -i 14 -a 1 -x {0.0 6.0 8 ------- null}
+ -t 0.45624 -s 2 -d 3 -p tcp -e 1040 -c 1 -i 14 -a 1 -x {0.0 6.0 8 ------- null}
r -t 0.45856 -s 4 -d 3 -p ack -e 40 -c 1 -i 15 -a 1 -x {6.0 0.0 6 ------- null}
+ -t 0.45856 -s 3 -d 2 -p ack -e 40 -c 1 -i 15 -a 1 -x {6.0 0.0 6 ------- null}
- -t 0.45856 -s 3 -d 2 -p ack -e 40 -c 1 -i 15 -a 1 -x {6.0 0.0 6 ------- null}
h -t 0.45856 -s 3 -d 2 -p ack -e 40 -c 1 -i 15 -a 1 -x {6.0 0.0 -1 ------- null}
r -t 0.46288 -s 2 -d 0 -p ack -e 40 -c 1 -i 12 -a 1 -x {6.0 0.0 5 ------- null}
+ -t 0.46288 -s 0 -d 2 -p tcp -e 1040 -c 1 -i 18 -a 1 -x {0.0 6.0 11 ------- null}
+ -t 0.46288 -s 0 -d 2 -p tcp -e 1040 -c 1 -i 19 -a 1 -x {0.0 6.0 12 ------- null}
- -t 0.46288 -s 0 -d 2 -p tcp -e 1040 -c 1 -i 18 -a 1 -x {0.0 6.0 11 ------- null}
h -t 0.46288 -s 0 -d 2 -p tcp -e 1040 -c 1 -i 18 -a 1 -x {0.0 6.0 -1 ------- null}
r -t 0.46456 -s 0 -d 2 -p tcp -e 1040 -c 1 -i 16 -a 1 -x {0.0 6.0 9 ------- null}
+ -t 0.46456 -s 2 -d 3 -p tcp -e 1040 -c 1 -i 16 -a 1 -x {0.0 6.0 9 ------- null}
- -t 0.46456 -s 2 -d 3 -p tcp -e 1040 -c 1 -i 14 -a 1 -x {0.0 6.0 8 ------- null}
h -t 0.46456 -s 2 -d 3 -p tcp -e 1040 -c 1 -i 14 -a 1 -x {0.0 6.0 -1 ------- null}
r -t 0.4692 -s 3 -d 2 -p ack -e 40 -c 1 -i 15 -a 1 -x {6.0 0.0 6 ------- null}
+ -t 0.4692 -s 2 -d 0 -p ack -e 40 -c 1 -i 15 -a 1 -x {6.0 0.0 6 ------- null}
- -t 0.4692 -s 2 -d 0 -p ack -e 40 -c 1 -i 15 -a 1 -x {6.0 0.0 6 ------- null}
h -t 0.4692 -s 2 -d 0 -p ack -e 40 -c 1 -i 15 -a 1 -x {6.0 0.0 -1 ------- null}
- -t 0.4712 -s 0 -d 2 -p tcp -e 1040 -c 1 -i 19 -a 1 -x {0.0 6.0 12 ------- null}
h -t 0.4712 -s 0 -d 2 -p tcp -e 1040 -c 1 -i 19 -a 1 -x {0.0 6.0 -1 ------- null}
r -t 0.47288 -s 0 -d 2 -p tcp -e 1040 -c 1 -i 17 -a 1 -x {0.0 6.0 10 ------- null}
+ -t 0.47288 -s 2 -d 3 -p tcp -e 1040 -c 1 -i 17 -a 1 -x {0.0 6.0 10 ------- null}
r -t 0.47456 -s 2 -d 3 -p tcp -e 1040 -c 1 -i 13 -a 1 -x {0.0 6.0 7 ------- null}
+ -t 0.47456 -s 3 -d 4 -p tcp -e 1040 -c 1 -i 13 -a 1 -x {0.0 6.0 7 ------- null}
- -t 0.47456 -s 3 -d 4 -p tcp -e 1040 -c 1 -i 13 -a 1 -x {0.0 6.0 7 ------- null}
h -t 0.47456 -s 3 -d 4 -p tcp -e 1040 -c 1 -i 13 -a 1 -x {0.0 6.0 -1 ------- null}
r -t 0.47952 -s 2 -d 0 -p ack -e 40 -c 1 -i 15 -a 1 -x {6.0 0.0 6 ------- null}
+ -t 0.47952 -s 0 -d 2 -p tcp -e 1040 -c 1 -i 20 -a 1 -x {0.0 6.0 13 ------- null}
+ -t 0.47952 -s 0 -d 2 -p tcp -e 1040 -c 1 -i 21 -a 1 -x {0.0 6.0 14 ------- null}
- -t 0.47952 -s 0 -d 2 -p tcp -e 1040 -c 1 -i 20 -a 1 -x {0.0 6.0 13 ------- null}
h -t 0.47952 -s 0 -d 2 -p tcp -e 1040 -c 1 -i 20 -a 1 -x {0.0 6.0 -1 ------- null}
r -t 0.4812 -s 0 -d 2 -p tcp -e 1040 -c 1 -i 18 -a 1 -x {0.0 6.0 11 ------- null}
+ -t 0.4812 -s 2 -d 3 -p tcp -e 1040 -c 1 -i 18 -a 1 -x {0.0 6.0 11 ------- null}
- -t 0.4812 -s 2 -d 3 -p tcp -e 1040 -c 1 -i 16 -a 1 -x {0.0 6.0 9 ------- null}
h -t 0.4812 -s 2 -d 3 -p tcp -e 1040 -c 1 -i 16 -a 1 -x {0.0 6.0 -1 ------- null}
- -t 0.48784 -s 0 -d 2 -p tcp -e 1040 -c 1 -i 21 -a 1 -x {0.0 6.0 14 ------- null}
h -t 0.48784 -s 0 -d 2 -p tcp -e 1040 -c 1 -i 21 -a 1 -x {0.0 6.0 -1 ------- null}
r -t 0.48952 -s 0 -d 2 -p tcp -e 1040 -c 1 -i 19 -a 1 -x {0.0 6.0 12 ------- null}
+ -t 0.48952 -s 2 -d 3 -p tcp -e 1040 -c 1 -i 19 -a 1 -x {0.0 6.0 12 ------- null}
r -t 0.4912 -s 2 -d 3 -p tcp -e 1040 -c 1 -i 14 -a 1 -x {0.0 6.0 8 ------- null}
+ -t 0.4912 -s 3 -d 4 -p tcp -e 1040 -c 1 -i 14 -a 1 -x {0.0 6.0 8 ------- null}
- -t 0.4912 -s 3 -d 4 -p tcp -e 1040 -c 1 -i 14 -a 1 -x {0.0 6.0 8 ------- null}
h -t 0.4912 -s 3 -d 4 -p tcp -e 1040 -c 1 -i 14 -a 1 -x {0.0 6.0 -1 ------- null}
r -t 0.49288 -s 3 -d 4 -p tcp -e 1040 -c 1 -i 13 -a 1 -x {0.0 6.0 7 ------- null}
+ -t 0.49288 -s 4 -d 6 -p tcp -e 1040 -c 1 -i 13 -a 1 -x {0.0 6.0 7 ------- null}
- -t 0.49288 -s 4 -d 6 -p tcp -e 1040 -c 1 -i 13 -a 1 -x {0.0 6.0 7 ------- null}
h -t 0.49288 -s 4 -d 6 -p tcp -e 1040 -c 1 -i 13 -a 1 -x {0.0 6.0 -1 ------- null}
r -t 0.49784 -s 0 -d 2 -p tcp -e 1040 -c 1 -i 20 -a 1 -x {0.0 6.0 13 ------- null}
+ -t 0.49784 -s 2 -d 3 -p tcp -e 1040 -c 1 -i 20 -a 1 -x {0.0 6.0 13 ------- null}
- -t 0.49784 -s 2 -d 3 -p tcp -e 1040 -c 1 -i 17 -a 1 -x {0.0 6.0 10 ------- null}
h -t 0.49784 -s 2 -d 3 -p tcp -e 1040 -c 1 -i 17 -a 1 -x {0.0 6.0 -1 ------- null}
r -t 0.50616 -s 0 -d 2 -p tcp -e 1040 -c 1 -i 21 -a 1 -x {0.0 6.0 14 ------- null}
+ -t 0.50616 -s 2 -d 3 -p tcp -e 1040 -c 1 -i 21 -a 1 -x {0.0 6.0 14 ------- null}
r -t 0.50784 -s 2 -d 3 -p tcp -e 1040 -c 1 -i 16 -a 1 -x {0.0 6.0 9 ------- null}
+ -t 0.50784 -s 3 -d 4 -p tcp -e 1040 -c 1 -i 16 -a 1 -x {0.0 6.0 9 ------- null}
- -t 0.50784 -s 3 -d 4 -p tcp -e 1040 -c 1 -i 16 -a 1 -x {0.0 6.0 9 ------- null}
h -t 0.50784 -s 3 -d 4 -p tcp -e 1040 -c 1 -i 16 -a 1 -x {0.0 6.0 -1 ------- null}
r -t 0.50952 -s 3 -d 4 -p tcp -e 1040 -c 1 -i 14 -a 1 -x {0.0 6.0 8 ------- null}
+ -t 0.50952 -s 4 -d 6 -p tcp -e 1040 -c 1 -i 14 -a 1 -x {0.0 6.0 8 ------- null}
- -t 0.50952 -s 4 -d 6 -p tcp -e 1040 -c 1 -i 14 -a 1 -x {0.0 6.0 8 ------- null}
h -t 0.50952 -s 4 -d 6 -p tcp -e 1040 -c 1 -i 14 -a 1 -x {0.0 6.0 -1 ------- null}
r -t 0.5112 -s 4 -d 6 -p tcp -e 1040 -c 1 -i 13 -a 1 -x {0.0 6.0 7 ------- null}
+ -t 0.5112 -s 6 -d 4 -p ack -e 40 -c 1 -i 22 -a 1 -x {6.0 0.0 7 ------- null}
- -t 0.5112 -s 6 -d 4 -p ack -e 40 -c 1 -i 22 -a 1 -x {6.0 0.0 7 ------- null}
h -t 0.5112 -s 6 -d 4 -p ack -e 40 -c 1 -i 22 -a 1 -x {6.0 0.0 -1 ------- null}
- -t 0.51448 -s 2 -d 3 -p tcp -e 1040 -c 1 -i 18 -a 1 -x {0.0 6.0 11 ------- null}
h -t 0.51448 -s 2 -d 3 -p tcp -e 1040 -c 1 -i 18 -a 1 -x {0.0 6.0 -1 ------- null}
r -t 0.52152 -s 6 -d 4 -p ack -e 40 -c 1 -i 22 -a 1 -x {6.0 0.0 7 ------- null}
+ -t 0.52152 -s 4 -d 3 -p ack -e 40 -c 1 -i 22 -a 1 -x {6.0 0.0 7 ------- null}
- -t 0.52152 -s 4 -d 3 -p ack -e 40 -c 1 -i 22 -a 1 -x {6.0 0.0 7 ------- null}
h -t 0.52152 -s 4 -d 3 -p ack -e 40 -c 1 -i 22 -a 1 -x {6.0 0.0 -1 ------- null}
r -t 0.52448 -s 2 -d 3 -p tcp -e 1040 -c 1 -i 17 -a 1 -x {0.0 6.0 10 ------- null}
+ -t 0.52448 -s 3 -d 4 -p tcp -e 1040 -c 1 -i 17 -a 1 -x {0.0 6.0 10 ------- null}
- -t 0.52448 -s 3 -d 4 -p tcp -e 1040 -c 1 -i 17 -a 1 -x {0.0 6.0 10 ------- null}
h -t 0.52448 -s 3 -d 4 -p tcp -e 1040 -c 1 -i 17 -a 1 -x {0.0 6.0 -1 ------- null}
r -t 0.52616 -s 3 -d 4 -p tcp -e 1040 -c 1 -i 16 -a 1 -x {0.0 6.0 9 ------- null}
+ -t 0.52616 -s 4 -d 6 -p tcp -e 1040 -c 1 -i 16 -a 1 -x {0.0 6.0 9 ------- null}
- -t 0.52616 -s 4 -d 6 -p tcp -e 1040 -c 1 -i 16 -a 1 -x {0.0 6.0 9 ------- null}
h -t 0.52616 -s 4 -d 6 -p tcp -e 1040 -c 1 -i 16 -a 1 -x {0.0 6.0 -1 ------- null}
r -t 0.52784 -s 4 -d 6 -p tcp -e 1040 -c 1 -i 14 -a 1 -x {0.0 6.0 8 ------- null}
+ -t 0.52784 -s 6 -d 4 -p ack -e 40 -c 1 -i 23 -a 1 -x {6.0 0.0 8 ------- null}
- -t 0.52784 -s 6 -d 4 -p ack -e 40 -c 1 -i 23 -a 1 -x {6.0 0.0 8 ------- null}
h -t 0.52784 -s 6 -d 4 -p ack -e 40 -c 1 -i 23 -a 1 -x {6.0 0.0 -1 ------- null}
- -t 0.53112 -s 2 -d 3 -p tcp -e 1040 -c 1 -i 19 -a 1 -x {0.0 6.0 12 ------- null}
h -t 0.53112 -s 2 -d 3 -p tcp -e 1040 -c 1 -i 19 -a 1 -x {0.0 6.0 -1 ------- null}
r -t 0.53184 -s 4 -d 3 -p ack -e 40 -c 1 -i 22 -a 1 -x {6.0 0.0 7 ------- null}
+ -t 0.53184 -s 3 -d 2 -p ack -e 40 -c 1 -i 22 -a 1 -x {6.0 0.0 7 ------- null}
- -t 0.53184 -s 3 -d 2 -p ack -e 40 -c 1 -i 22 -a 1 -x {6.0 0.0 7 ------- null}
h -t 0.53184 -s 3 -d 2 -p ack -e 40 -c 1 -i 22 -a 1 -x {6.0 0.0 -1 ------- null}
r -t 0.53816 -s 6 -d 4 -p ack -e 40 -c 1 -i 23 -a 1 -x {6.0 0.0 8 ------- null}
+ -t 0.53816 -s 4 -d 3 -p ack -e 40 -c 1 -i 23 -a 1 -x {6.0 0.0 8 ------- null}
- -t 0.53816 -s 4 -d 3 -p ack -e 40 -c 1 -i 23 -a 1 -x {6.0 0.0 8 ------- null}
h -t 0.53816 -s 4 -d 3 -p ack -e 40 -c 1 -i 23 -a 1 -x {6.0 0.0 -1 ------- null}
r -t 0.54112 -s 2 -d 3 -p tcp -e 1040 -c 1 -i 18 -a 1 -x {0.0 6.0 11 ------- null}
+ -t 0.54112 -s 3 -d 4 -p tcp -e 1040 -c 1 -i 18 -a 1 -x {0.0 6.0 11 ------- null}
- -t 0.54112 -s 3 -d 4 -p tcp -e 1040 -c 1 -i 18 -a 1 -x {0.0 6.0 11 ------- null}
h -t 0.54112 -s 3 -d 4 -p tcp -e 1040 -c 1 -i 18 -a 1 -x {0.0 6.0 -1 ------- null}
r -t 0.54248 -s 3 -d 2 -p ack -e 40 -c 1 -i 22 -a 1 -x {6.0 0.0 7 ------- null}
+ -t 0.54248 -s 2 -d 0 -p ack -e 40 -c 1 -i 22 -a 1 -x {6.0 0.0 7 ------- null}
- -t 0.54248 -s 2 -d 0 -p ack -e 40 -c 1 -i 22 -a 1 -x {6.0 0.0 7 ------- null}
h -t 0.54248 -s 2 -d 0 -p ack -e 40 -c 1 -i 22 -a 1 -x {6.0 0.0 -1 ------- null}
r -t 0.5428 -s 3 -d 4 -p tcp -e 1040 -c 1 -i 17 -a 1 -x {0.0 6.0 10 ------- null}
+ -t 0.5428 -s 4 -d 6 -p tcp -e 1040 -c 1 -i 17 -a 1 -x {0.0 6.0 10 ------- null}
- -t 0.5428 -s 4 -d 6 -p tcp -e 1040 -c 1 -i 17 -a 1 -x {0.0 6.0 10 ------- null}
h -t 0.5428 -s 4 -d 6 -p tcp -e 1040 -c 1 -i 17 -a 1 -x {0.0 6.0 -1 ------- null}
r -t 0.54448 -s 4 -d 6 -p tcp -e 1040 -c 1 -i 16 -a 1 -x {0.0 6.0 9 ------- null}
+ -t 0.54448 -s 6 -d 4 -p ack -e 40 -c 1 -i 24 -a 1 -x {6.0 0.0 9 ------- null}
- -t 0.54448 -s 6 -d 4 -p ack -e 40 -c 1 -i 24 -a 1 -x {6.0 0.0 9 ------- null}
h -t 0.54448 -s 6 -d 4 -p ack -e 40 -c 1 -i 24 -a 1 -x {6.0 0.0 -1 ------- null}
- -t 0.54776 -s 2 -d 3 -p tcp -e 1040 -c 1 -i 20 -a 1 -x {0.0 6.0 13 ------- null}
h -t 0.54776 -s 2 -d 3 -p tcp -e 1040 -c 1 -i 20 -a 1 -x {0.0 6.0 -1 ------- null}
r -t 0.54848 -s 4 -d 3 -p ack -e 40 -c 1 -i 23 -a 1 -x {6.0 0.0 8 ------- null}
+ -t 0.54848 -s 3 -d 2 -p ack -e 40 -c 1 -i 23 -a 1 -x {6.0 0.0 8 ------- null}
- -t 0.54848 -s 3 -d 2 -p ack -e 40 -c 1 -i 23 -a 1 -x {6.0 0.0 8 ------- null}
h -t 0.54848 -s 3 -d 2 -p ack -e 40 -c 1 -i 23 -a 1 -x {6.0 0.0 -1 ------- null}
r -t 0.5528 -s 2 -d 0 -p ack -e 40 -c 1 -i 22 -a 1 -x {6.0 0.0 7 ------- null}
+ -t 0.5528 -s 0 -d 2 -p tcp -e 1040 -c 1 -i 25 -a 1 -x {0.0 6.0 15 ------- null}
- -t 0.5528 -s 0 -d 2 -p tcp -e 1040 -c 1 -i 25 -a 1 -x {0.0 6.0 15 ------- null}
h -t 0.5528 -s 0 -d 2 -p tcp -e 1040 -c 1 -i 25 -a 1 -x {0.0 6.0 -1 ------- null}
+ -t 0.5528 -s 0 -d 2 -p tcp -e 1040 -c 1 -i 26 -a 1 -x {0.0 6.0 16 ------- null}
r -t 0.5548 -s 6 -d 4 -p ack -e 40 -c 1 -i 24 -a 1 -x {6.0 0.0 9 ------- null}
+ -t 0.5548 -s 4 -d 3 -p ack -e 40 -c 1 -i 24 -a 1 -x {6.0 0.0 9 ------- null}
- -t 0.5548 -s 4 -d 3 -p ack -e 40 -c 1 -i 24 -a 1 -x {6.0 0.0 9 ------- null}
h -t 0.5548 -s 4 -d 3 -p ack -e 40 -c 1 -i 24 -a 1 -x {6.0 0.0 -1 ------- null}
r -t 0.55776 -s 2 -d 3 -p tcp -e 1040 -c 1 -i 19 -a 1 -x {0.0 6.0 12 ------- null}
+ -t 0.55776 -s 3 -d 4 -p tcp -e 1040 -c 1 -i 19 -a 1 -x {0.0 6.0 12 ------- null}
- -t 0.55776 -s 3 -d 4 -p tcp -e 1040 -c 1 -i 19 -a 1 -x {0.0 6.0 12 ------- null}
h -t 0.55776 -s 3 -d 4 -p tcp -e 1040 -c 1 -i 19 -a 1 -x {0.0 6.0 -1 ------- null}