+ 0.1 0 2 tcp 40 ------- 1 0.0 6.0 0 0
- 0.1 0 2 tcp 40 ------- 1 0.0 6.0 0 0
r 0.11032 0 2 tcp 40 ------- 1 0.0 6.0 0 0
+ 0.11032 2 3 tcp 40 ------- 1 0.0 6.0 0 0
- 0.11032 2 3 tcp 40 ------- 1 0.0 6.0 0 0
r 0.12096 2 3 tcp 40 ------- 1 0.0 6.0 0 0
+ 0.12096 3 4 tcp 40 ------- 1 0.0 6.0 0 0
- 0.12096 3 4 tcp 40 ------- 1 0.0 6.0 0 0
r 0.13128 3 4 tcp 40 ------- 1 0.0 6.0 0 0
+ 0.13128 4 6 tcp 40 ------- 1 0.0 6.0 0 0
- 0.13128 4 6 tcp 40 ------- 1 0.0 6.0 0 0
r 0.1416 4 6 tcp 40 ------- 1 0.0 6.0 0 0
+ 0.1416 6 4 ack 40 ------- 1 6.0 0.0 0 1
- 0.1416 6 4 ack 40 ------- 1 6.0 0.0 0 1
r 0.15192 6 4 ack 40 ------- 1 6.0 0.0 0 1
+ 0.15192 4 3 ack 40 ------- 1 6.0 0.0 0 1
- 0.15192 4 3 ack 40 ------- 1 6.0 0.0 0 1
r 0.16224 4 3 ack 40 ------- 1 6.0 0.0 0 1
+ 0.16224 3 2 ack 40 ------- 1 6.0 0.0 0 1
- 0.16224 3 2 ack 40 ------- 1 6.0 0.0 0 1
r 0.17288 3 2 ack 40 ------- 1 6.0 0.0 0 1
+ 0.17288 2 0 ack 40 ------- 1 6.0 0.0 0 1
- 0.17288 2 0 ack 40 ------- 1 6.0 0.0 0 1
r 0.1832 2 0 ack 40 ------- 1 6.0 0.0 0 1
+ 0.1832 0 2 tcp 1040 ------- 1 0.0 6.0 1 2
- 0.1832 0 2 tcp 1040 ------- 1 0.0 6.0 1 2
+ 0.1832 0 2 tcp 1040 ------- 1 0.0 6.0 2 3
- 0.19152 0 2 tcp 1040 ------- 1 0.0 6.0 2 3
r 0.20152 0 2 tcp 1040 ------- 1 0.0 6.0 1 2
+ 0.20152 2 3 tcp 1040 ------- 1 0.0 6.0 1 2
- 0.20152 2 3 tcp 1040 ------- 1 0.0 6.0 1 2
r 0.20984 0 2 tcp 1040 ------- 1 0.0 6.0 2 3
+ 0.20984 2 3 tcp 1040 ------- 1 0.0 6.0 2 3
- 0.21816 2 3 tcp 1040 ------- 1 0.0 6.0 2 3
r 0.22816 2 3 tcp 1040 ------- 1 0.0 6.0 1 2
+ 0.22816 3 4 tcp 1040 ------- 1 0.0 6.0 1 2
- 0.22816 3 4 tcp 1040 ------- 1 0.0 6.0 1 2
r 0.2448 2 3 tcp 1040 ------- 1 0.0 6.0 2 3
+ 0.2448 3 4 tcp 1040 ------- 1 0.0 6.0 2 3
- 0.2448 3 4 tcp 1040 ------- 1 0.0 6.0 2 3
r 0.24648 3 4 tcp 1040 ------- 1 0.0 6.0 1 2
+ 0.24648 4 6 tcp 1040 ------- 1 0.0 6.0 1 2
- 0.24648 4 6 tcp 1040 ------- 1 0.0 6.0 1 2
r 0.26312 3 4 tcp 1040 ------- 1 0.0 6.0 2 3
+ 0.26312 4 6 tcp 1040 ------- 1 0.0 6.0 2 3
- 0.26312 4 6 tcp 1040 ------- 1 0.0 6.0 2 3
r 0.2648 4 6 tcp 1040 ------- 1 0.0 6.0 1 2
+ 0.2648 6 4 ack 40 ------- 1 6.0 0.0 1 4
- 0.2648 6 4 ack 40 ------- 1 6.0 0.0 1 4
r 0.27512 6 4 ack 40 ------- 1 6.0 0.0 1 4
+ 0.27512 4 3 ack 40 ------- 1 6.0 0.0 1 4
- 0.27512 4 3 ack 40 ------- 1 6.0 0.0 1 4
r 0.28144 4 6 tcp 1040 ------- 1 0.0 6.0 2 3
+ 0.28144 6 4 ack 40 ------- 1 6.0 0.0 2 5
- 0.28144 6 4 ack 40 ------- 1 6.0 0.0 2 5
r 0.28544 4 3 ack 40 ------- 1 6.0 0.0 1 4
+ 0.28544 3 2 ack 40 ------- 1 6.0 0.0 1 4
- 0.28544 3 2 ack 40 ------- 1 6.0 0.0 1 4
r 0.29176 6 4 ack 40 ------- 1 6.0 0.0 2 5
+ 0.29176 4 3 ack 40 ------- 1 6.0 0.0 2 5
- 0.29176 4 3 ack 40 ------- 1 6.0 0.0 2 5
r 0.29608 3 2 ack 40 ------- 1 6.0 0.0 1 4
+ 0.29608 2 0 ack 40 ------- 1 6.0 0.0 1 4
- 0.29608 2 0 ack 40 ------- 1 6.0 0.0 1 4
r 0.30208 4 3 ack 40 ------- 1 6.0 0.0 2 5
+ 0.30208 3 2 ack 40 ------- 1 6.0 0.0 2 5
- 0.30208 3 2 ack 40 ------- 1 6.0 0.0 2 5
r 0.3064 2 0 ack 40 ------- 1 6.0 0.0 1 4
+ 0.3064 0 2 tcp 1040 ------- 1 0.0 6.0 3 6
- 0.3064 0 2 tcp 1040 ------- 1 0.0 6.0 3 6
+ 0.3064 0 2 tcp 1040 ------- 1 0.0 6.0 4 7
r 0.31272 3 2 ack 40 ------- 1 6.0 0.0 2 5
+ 0.31272 2 0 ack 40 ------- 1 6.0 0.0 2 5
- 0.31272 2 0 ack 40 ------- 1 6.0 0.0 2 5
- 0.31472 0 2 tcp 1040 ------- 1 0.0 6.0 4 7
r 0.32304 2 0 ack 40 ------- 1 6.0 0.0 2 5
+ 0.32304 0 2 tcp 1040 ------- 1 0.0 6.0 5 8
+ 0.32304 0 2 tcp 1040 ------- 1 0.0 6.0 6 9
- 0.32304 0 2 tcp 1040 ------- 1 0.0 6.0 5 8
r 0.32472 0 2 tcp 1040 ------- 1 0.0 6.0 3 6
+ 0.32472 2 3 tcp 1040 ------- 1 0.0 6.0 3 6
- 0.32472 2 3 tcp 1040 ------- 1 0.0 6.0 3 6
- 0.33136 0 2 tcp 1040 ------- 1 0.0 6.0 6 9
r 0.33304 0 2 tcp 1040 ------- 1 0.0 6.0 4 7
+ 0.33304 2 3 tcp 1040 ------- 1 0.0 6.0 4 7
r 0.34136 0 2 tcp 1040 ------- 1 0.0 6.0 5 8
+ 0.34136 2 3 tcp 1040 ------- 1 0.0 6.0 5 8
- 0.34136 2 3 tcp 1040 ------- 1 0.0 6.0 4 7
r 0.34968 0 2 tcp 1040 ------- 1 0.0 6.0 6 9
+ 0.34968 2 3 tcp 1040 ------- 1 0.0 6.0 6 9
r 0.35136 2 3 tcp 1040 ------- 1 0.0 6.0 3 6
+ 0.35136 3 4 tcp 1040 ------- 1 0.0 6.0 3 6
- 0.35136 3 4 tcp 1040 ------- 1 0.0 6.0 3 6
- 0.358 2 3 tcp 1040 ------- 1 0.0 6.0 5 8
r 0.368 2 3 tcp 1040 ------- 1 0.0 6.0 4 7
+ 0.368 3 4 tcp 1040 ------- 1 0.0 6.0 4 7
- 0.368 3 4 tcp 1040 ------- 1 0.0 6.0 4 7
r 0.36968 3 4 tcp 1040 ------- 1 0.0 6.0 3 6
+ 0.36968 4 6 tcp 1040 ------- 1 0.0 6.0 3 6
- 0.36968 4 6 tcp 1040 ------- 1 0.0 6.0 3 6
- 0.37464 2 3 tcp 1040 ------- 1 0.0 6.0 6 9
r 0.38464 2 3 tcp 1040 ------- 1 0.0 6.0 5 8
+ 0.38464 3 4 tcp 1040 ------- 1 0.0 6.0 5 8
- 0.38464 3 4 tcp 1040 ------- 1 0.0 6.0 5 8
r 0.38632 3 4 tcp 1040 ------- 1 0.0 6.0 4 7
+ 0.38632 4 6 tcp 1040 ------- 1 0.0 6.0 4 7
- 0.38632 4 6 tcp 1040 ------- 1 0.0 6.0 4 7
r 0.388 4 6 tcp 1040 ------- 1 0.0 6.0 3 6
+ 0.388 6 4 ack 40 ------- 1 6.0 0.0 3 10
- 0.388 6 4 ack 40 ------- 1 6.0 0.0 3 10
r 0.39832 6 4 ack 40 ------- 1 6.0 0.0 3 10
+ 0.39832 4 3 ack 40 ------- 1 6.0 0.0 3 10
- 0.39832 4 3 ack 40 ------- 1 6.0 0.0 3 10
r 0.40128 2 3 tcp 1040 ------- 1 0.0 6.0 6 9
+ 0.40128 3 4 tcp 1040 ------- 1 0.0 6.0 6 9
- 0.40128 3 4 tcp 1040 ------- 1 0.0 6.0 6 9
r 0.40296 3 4 tcp 1040 ------- 1 0.0 6.0 5 8
+ 0.40296 4 6 tcp 1040 ------- 1 0.0 6.0 5 8
- 0.40296 4 6 tcp 1040 ------- 1 0.0 6.0 5 8
r 0.40464 4 6 tcp 1040 ------- 1 0.0 6.0 4 7
+ 0.40464 6 4 ack 40 ------- 1 6.0 0.0 4 11
- 0.40464 6 4 ack 40 ------- 1 6.0 0.0 4 11
r 0.40864 4 3 ack 40 ------- 1 6.0 0.0 3 10
+ 0.40864 3 2 ack 40 ------- 1 6.0 0.0 3 10
- 0.40864 3 2 ack 40 ------- 1 6.0 0.0 3 10
r 0.41496 6 4 ack 40 ------- 1 6.0 0.0 4 11
+ 0.41496 4 3 ack 40 ------- 1 6.0 0.0 4 11
- 0.41496 4 3 ack 40 ------- 1 6.0 0.0 4 11
r 0.41928 3 2 ack 40 ------- 1 6.0 0.0 3 10
+ 0.41928 2 0 ack 40 ------- 1 6.0 0.0 3 10
- 0.41928 2 0 ack 40 ------- 1 6.0 0.0 3 10
r 0.4196 3 4 tcp 1040 ------- 1 0.0 6.0 6 9
+ 0.4196 4 6 tcp 1040 ------- 1 0.0 6.0 6 9
- 0.4196 4 6 tcp 1040 ------- 1 0.0 6.0 6 9
r 0.42128 4 6 tcp 1040 ------- 1 0.0 6.0 5 8
+ 0.42128 6 4 ack 40 ------- 1 6.0 0.0 5 12
- 0.42128 6 4 ack 40 ------- 1 6.0 0.0 5 12
r 0.42528 4 3 ack 40 ------- 1 6.0 0.0 4 11
+ 0.42528 3 2 ack 40 ------- 1 6.0 0.0 4 11
- 0.42528 3 2 ack 40 ------- 1 6.0 0.0 4 11
r 0.4296 2 0 ack 40 ------- 1 6.0 0.0 3 10
+ 0.4296 0 2 tcp 1040 ------- 1 0.0 6.0 7 13
- 0.4296 0 2 tcp 1040 ------- 1 0.0 6.0 7 13
+ 0.4296 0 2 tcp 1040 ------- 1 0.0 6.0 8 14
r 0.4316 6 4 ack 40 ------- 1 6.0 0.0 5 12
+ 0.4316 4 3 ack 40 ------- 1 6.0 0.0 5 12
- 0.4316 4 3 ack 40 ------- 1 6.0 0.0 5 12
r 0.43592 3 2 ack 40 ------- 1 6.0 0.0 4 11
+ 0.43592 2 0 ack 40 ------- 1 6.0 0.0 4 11
- 0.43592 2 0 ack 40 ------- 1 6.0 0.0 4 11
r 0.43792 4 6 tcp 1040 ------- 1 0.0 6.0 6 9
+ 0.43792 6 4 ack 40 ------- 1 6.0 0.0 6 15
- 0.43792 6 4 ack 40 ------- 1 6.0 0.0 6 15
- 0.43792 0 2 tcp 1040 ------- 1 0.0 6.0 8 14
r 0.44192 4 3 ack 40 ------- 1 6.0 0.0 5 12
+ 0.44192 3 2 ack 40 ------- 1 6.0 0.0 5 12
- 0.44192 3 2 ack 40 ------- 1 6.0 0.0 5 12
r 0.44624 2 0 ack 40 ------- 1 6.0 0.0 4 11
+ 0.44624 0 2 tcp 1040 ------- 1 0.0 6.0 9 16
+ 0.44624 0 2 tcp 1040 ------- 1 0.0 6.0 10 17
- 0.44624 0 2 tcp 1040 ------- 1 0.0 6.0 9 16
r 0.44792 0 2 tcp 1040 ------- 1 0.0 6.0 7 13
+ 0.44792 2 3 tcp 1040 ------- 1 0.0 6.0 7 13
- 0.44792 2 3 tcp 1040 ------- 1 0.0 6.0 7 13
r 0.44824 6 4 ack 40 ------- 1 6.0 0.0 6 15
+ 0.44824 4 3 ack 40 ------- 1 6.0 0.0 6 15
- 0.44824 4 3 ack 40 ------- 1 6.0 0.0 6 15
r 0.45256 3 2 ack 40 ------- 1 6.0 0.0 5 12
+ 0.45256 2 0 ack 40 ------- 1 6.0 0.0 5 12
- 0.45256 2 0 ack 40 ------- 1 6.0 0.0 5 12
- 0.45456 0 2 tcp 1040 ------- 1 0.0 6.0 10 17
r 0.45624 0 2 tcp 1040 ------- 1 0.0 6.0 8 14
+ 0.45624 2 3 tcp 1040 ------- 1 0.0 6.0 8 14
r 0.45856 4 3 ack 40 ------- 1 6.0 0.0 6 15
+ 0.45856 3 2 ack 40 ------- 1 6.0 0.0 6 15
- 0.45856 3 2 ack 40 ------- 1 6.0 0.0 6 15
r 0.46288 2 0 ack 40 ------- 1 6.0 0.0 5 12
+ 0.46288 0 2 tcp 1040 ------- 1 0.0 6.0 11 18
+ 0.46288 0 2 tcp 1040 ------- 1 0.0 6.0 12 19
- 0.46288 0 2 tcp 1040 ------- 1 0.0 6.0 11 18
r 0.46456 0 2 tcp 1040 ------- 1 0.0 6.0 9 16
+ 0.46456 2 3 tcp 1040 ------- 1 0.0 6.0 9 16
- 0.46456 2 3 tcp 1040 ------- 1 0.0 6.0 8 14
r 0.4692 3 2 ack 40 ------- 1 6.0 0.0 6 15
+ 0.4692 2 0 ack 40 ------- 1 6.0 0.0 6 15
- 0.4692 2 0 ack 40 ------- 1 6.0 0.0 6 15
- 0.4712 0 2 tcp 1040 ------- 1 0.0 6.0 12 19
r 0.47288 0 2 tcp 1040 ------- 1 0.0 6.0 10 17
+ 0.47288 2 3 tcp 1040 ------- 1 0.0 6.0 10 17
r 0.47456 2 3 tcp 1040 ------- 1 0.0 6.0 7 13
+ 0.47456 3 4 tcp 1040 ------- 1 0.0 6.0 7 13
- 0.47456 3 4 tcp 1040 ------- 1 0.0 6.0 7 13
r 0.47952 2 0 ack 40 ------- 1 6.0 0.0 6 15
+ 0.47952 0 2 tcp 1040 ------- 1 0.0 6.0 13 20
+ 0.47952 0 2 tcp 1040 ------- 1 0.0 6.0 14 21
- 0.47952 0 2 tcp 1040 ------- 1 0.0 6.0 13 20
r 0.4812 0 2 tcp 1040 ------- 1 0.0 6.0 11 18
+ 0.4812 2 3 tcp 1040 ------- 1 0.0 6.0 11 18
- 0.4812 2 3 tcp 1040 ------- 1 0.0 6.0 9 16
- 0.48784 0 2 tcp 1040 ------- 1 0.0 6.0 14 21
r 0.48952 0 2 tcp 1040 ------- 1 0.0 6.0 12 19
+ 0.48952 2 3 tcp 1040 ------- 1 0.0 6.0 12 19
r 0.4912 2 3 tcp 1040 ------- 1 0.0 6.0 8 14
+ 0.4912 3 4 tcp 1040 ------- 1 0.0 6.0 8 14
- 0.4912 3 4 tcp 1040 ------- 1 0.0 6.0 8 14
r 0.49288 3 4 tcp 1040 ------- 1 0.0 6.0 7 13
+ 0.49288 4 6 tcp 1040 ------- 1 0.0 6.0 7 13
- 0.49288 4 6 tcp 1040 ------- 1 0.0 6.0 7 13
r 0.49784 0 2 tcp 1040 ------- 1 0.0 6.0 13 20
+ 0.49784 2 3 tcp 1040 ------- 1 0.0 6.0 13 20
- 0.49784 2 3 tcp 1040 ------- 1 0.0 6.0 10 17
r 0.50616 0 2 tcp 1040 ------- 1 0.0 6.0 14 21
+ 0.50616 2 3 tcp 1040 ------- 1 0.0 6.0 14 21
r 0.50784 2 3 tcp 1040 ------- 1 0.0 6.0 9 16
+ 0.50784 3 4 tcp 1040 ------- 1 0.0 6.0 9 16
- 0.50784 3 4 tcp 1040 ------- 1 0.0 6.0 9 16
r 0.50952 3 4 tcp 1040 ------- 1 0.0 6.0 8 14
+ 0.50952 4 6 tcp 1040 ------- 1 0.0 6.0 8 14
- 0.50952 4 6 tcp 1040 ------- 1 0.0 6.0 8 14
r 0.5112 4 6 tcp 1040 ------- 1 0.0 6.0 7 13
+ 0.5112 6 4 ack 40 ------- 1 6.0 0.0 7 22
- 0.5112 6 4 ack 40 ------- 1 6.0 0.0 7 22
- 0.51448 2 3 tcp 1040 ------- 1 0.0 6.0 11 18
r 0.52152 6 4 ack 40 ------- 1 6.0 0.0 7 22
+ 0.52152 4 3 ack 40 ------- 1 6.0 0.0 7 22
- 0.52152 4 3 ack 40 ------- 1 6.0 0.0 7 22
r 0.52448 2 3 tcp 1040 ------- 1 0.0 6.0 10 17
+ 0.52448 3 4 tcp 1040 ------- 1 0.0 6.0 10 17
- 0.52448 3 4 tcp 1040 ------- 1 0.0 6.0 10 17
r 0.52616 3 4 tcp 1040 ------- 1 0.0 6.0 9 16
+ 0.52616 4 6 tcp 1040 ------- 1 0.0 6.0 9 16
- 0.52616 4 6 tcp 1040 ------- 1 0.0 6.0 9 16
r 0.52784 4 6 tcp 1040 ------- 1 0.0 6.0 8 14
+ 0.52784 6 4 ack 40 ------- 1 6.0 0.0 8 23
- 0.52784 6 4 ack 40 ------- 1 6.0 0.0 8 23
- 0.53112 2 3 tcp 1040 ------- 1 0.0 6.0 12 19
r 0.53184 4 3 ack 40 ------- 1 6.0 0.0 7 22
+ 0.53184 3 2 ack 40 ------- 1 6.0 0.0 7 22
- 0.53184 3 2 ack 40 ------- 1 6.0 0.0 7 22
r 0.53816 6 4 ack 40 ------- 1 6.0 0.0 8 23
+ 0.53816 4 3 ack 40 ------- 1 6.0 0.0 8 23
- 0.53816 4 3 ack 40 ------- 1 6.0 0.0 8 23
r 0.54112 2 3 tcp 1040 ------- 1 0.0 6.0 11 18
+ 0.54112 3 4 tcp 1040 ------- 1 0.0 6.0 11 18
- 0.54112 3 4 tcp 1040 ------- 1 0.0 6.0 11 18
r 0.54248 3 2 ack 40 ------- 1 6.0 0.0 7 22
+ 0.54248 2 0 ack 40 ------- 1 6.0 0.0 7 22
- 0.54248 2 0 ack 40 ------- 1 6.0 0.0 7 22
r 0.5428 3 4 tcp 1040 ------- 1 0.0 6.0 10 17
+ 0.5428 4 6 tcp 1040 ------- 1 0.0 6.0 10 17
- 0.5428 4 6 tcp 1040 ------- 1 0.0 6.0 10 17
r 0.54448 4 6 tcp 1040 ------- 1 0.0 6.0 9 16
+ 0.54448 6 4 ack 40 ------- 1 6.0 0.0 9 24
- 0.54448 6 4 ack 40 ------- 1 6.0 0.0 9 24
- 0.54776 2 3 tcp 1040 ------- 1 0.0 6.0 13 20
r 0.54848 4 3 ack 40 ------- 1 6.0 0.0 8 23
+ 0.54848 3 2 ack 40 ------- 1 6.0 0.0 8 23
- 0.54848 3 2 ack 40 ------- 1 6.0 0.0 8 23
r 0.5528 2 0 ack 40 ------- 1 6.0 0.0 7 22
+ 0.5528 0 2 tcp 1040 ------- 1 0.0 6.0 15 25
- 0.5528 0 2 tcp 1040 ------- 1 0.0 6.0 15 25
+ 0.5528 0 2 tcp 1040 ------- 1 0.0 6.0 16 26
r 0.5548 6 4 ack 40 ------- 1 6.0 0.0 9 24
+ 0.5548 4 3 ack 40 ------- 1 6.0 0.0 9 24
- 0.5548 4 3 ack 40 ------- 1 6.0 0.0 9 24
r 0.55776 2 3 tcp 1040 ------- 1 0.0 6.0 12 19
+ 0.55776 3 4 tcp 1040 ------- 1 0.0 6.0 12 19
- 0.55776 3 4 tcp 1040 ------- 1 0.0 6.0 12 19
r 0.55912 3 2 ack 40 ------- 1 6.0 0.0 8 23
+ 0.55912 2 0 ack 40 ------- 1 6.0 0.0 8 23
- 0.55912 2 0 ack 40 ------- 1 6.0 0.0 8 23
r 0.55944 3 4 tcp 1040 ------- 1 0.0 6.0 11 18
+ 0.55944 4 6 tcp 1040 ------- 1 0.0 6.0 11 18
- 0.55944 4 6 tcp 1040 ------- 1 0.0 6.0 11 18
r 0.56112 4 6 tcp 1040 ------- 1 0.0 6.0 10 17
+ 0.56112 6 4 ack 40 ------- 1 6.0 0.0 10 27
- 0.56112 6 4 ack 40 ------- 1 6.0 0.0 10 27
- 0.56112 0 2 tcp 1040 ------- 1 0.0 6.0 16 26
- 0.5644 2 3 tcp 1040 ------- 1 0.0 6.0 14 21
r 0.56512 4 3 ack 40 ------- 1 6.0 0.0 9 24
+ 0.56512 3 2 ack 40 ------- 1 6.0 0.0 9 24
- 0.56512 3 2 ack 40 ------- 1 6.0 0.0 9 24
r 0.56944 2 0 ack 40 ------- 1 6.0 0.0 8 23
+ 0.56944 0 2 tcp 1040 ------- 1 0.0 6.0 17 28
+ 0.56944 0 2 tcp 1040 ------- 1 0.0 6.0 18 29
- 0.56944 0 2 tcp 1040 ------- 1 0.0 6.0 17 28
r 0.57112 0 2 tcp 1040 ------- 1 0.0 6.0 15 25
+ 0.57112 2 3 tcp 1040 ------- 1 0.0 6.0 15 25
r 0.57144 6 4 ack 40 ------- 1 6.0 0.0 10 27
+ 0.57144 4 3 ack 40 ------- 1 6.0 0.0 10 27
- 0.57144 4 3 ack 40 ------- 1 6.0 0.0 10 27
r 0.5744 2 3 tcp 1040 ------- 1 0.0 6.0 13 20
+ 0.5744 3 4 tcp 1040 ------- 1 0.0 6.0 13 20
- 0.5744 3 4 tcp 1040 ------- 1 0.0 6.0 13 20
r 0.57576 3 2 ack 40 ------- 1 6.0 0.0 9 24
+ 0.57576 2 0 ack 40 ------- 1 6.0 0.0 9 24
- 0.57576 2 0 ack 40 ------- 1 6.0 0.0 9 24
r 0.57608 3 4 tcp 1040 ------- 1 0.0 6.0 12 19
+ 0.57608 4 6 tcp 1040 ------- 1 0.0 6.0 12 19
- 0.57608 4 6 tcp 1040 ------- 1 0.0 6.0 12 19
- 0.57776 0 2 tcp 1040 ------- 1 0.0 6.0 18 29
r 0.57776 4 6 tcp 1040 ------- 1 0.0 6.0 11 18
+ 0.57776 6 4 ack 40 ------- 1 6.0 0.0 11 30
- 0.57776 6 4 ack 40 ------- 1 6.0 0.0 11 30
r 0.57944 0 2 tcp 1040 ------- 1 0.0 6.0 16 26
+ 0.57944 2 3 tcp 1040 ------- 1 0.0 6.0 16 26
- 0.58104 2 3 tcp 1040 ------- 1 0.0 6.0 15 25
r 0.58176 4 3 ack 40 ------- 1 6.0 0.0 10 27
+ 0.58176 3 2 ack 40 ------- 1 6.0 0.0 10 27
- 0.58176 3 2 ack 40 ------- 1 6.0 0.0 10 27
r 0.58608 2 0 ack 40 ------- 1 6.0 0.0 9 24
+ 0.58608 0 2 tcp 1040 ------- 1 0.0 6.0 19 31
+ 0.58608 0 2 tcp 1040 ------- 1 0.0 6.0 20 32
- 0.58608 0 2 tcp 1040 ------- 1 0.0 6.0 19 31
r 0.58776 0 2 tcp 1040 ------- 1 0.0 6.0 17 28
+ 0.58776 2 3 tcp 1040 ------- 1 0.0 6.0 17 28
r 0.58808 6 4 ack 40 ------- 1 6.0 0.0 11 30
+ 0.58808 4 3 ack 40 ------- 1 6.0 0.0 11 30
- 0.58808 4 3 ack 40 ------- 1 6.0 0.0 11 30
r 0.59104 2 3 tcp 1040 ------- 1 0.0 6.0 14 21
+ 0.59104 3 4 tcp 1040 ------- 1 0.0 6.0 14 21
- 0.59104 3 4 tcp 1040 ------- 1 0.0 6.0 14 21
r 0.5924 3 2 ack 40 ------- 1 6.0 0.0 10 27
+ 0.5924 2 0 ack 40 ------- 1 6.0 0.0 10 27
- 0.5924 2 0 ack 40 ------- 1 6.0 0.0 10 27
r 0.59272 3 4 tcp 1040 ------- 1 0.0 6.0 13 20
+ 0.59272 4 6 tcp 1040 ------- 1 0.0 6.0 13 20
- 0.59272 4 6 tcp 1040 ------- 1 0.0 6.0 13 20
- 0.5944 0 2 tcp 1040 ------- 1 0.0 6.0 20 32
r 0.5944 4 6 tcp 1040 ------- 1 0.0 6.0 12 19
+ 0.5944 6 4 ack 40 ------- 1 6.0 0.0 12 33
- 0.5944 6 4 ack 40 ------- 1 6.0 0.0 12 33
r 0.59608 0 2 tcp 1040 ------- 1 0.0 6.0 18 29
+ 0.59608 2 3 tcp 1040 ------- 1 0.0 6.0 18 29
- 0.59768 2 3 tcp 1040 ------- 1 0.0 6.0 16 26
r 0.5984 4 3 ack 40 ------- 1 6.0 0.0 11 30
+ 0.5984 3 2 ack 40 ------- 1 6.0 0.0 11 30
- 0.5984 3 2 ack 40 ------- 1 6.0 0.0 11 30
r 0.60272 2 0 ack 40 ------- 1 6.0 0.0 10 27
+ 0.60272 0 2 tcp 1040 ------- 1 0.0 6.0 21 34
+ 0.60272 0 2 tcp 1040 ------- 1 0.0 6.0 22 35
- 0.60272 0 2 tcp 1040 ------- 1 0.0 6.0 21 34
r 0.6044 0 2 tcp 1040 ------- 1 0.0 6.0 19 31
+ 0.6044 2 3 tcp 1040 ------- 1 0.0 6.0 19 31
r 0.60472 6 4 ack 40 ------- 1 6.0 0.0 12 33
+ 0.60472 4 3 ack 40 ------- 1 6.0 0.0 12 33
- 0.60472 4 3 ack 40 ------- 1 6.0 0.0 12 33
r 0.60768 2 3 tcp 1040 ------- 1 0.0 6.0 15 25
+ 0.60768 3 4 tcp 1040 ------- 1 0.0 6.0 15 25
- 0.60768 3 4 tcp 1040 ------- 1 0.0 6.0 15 25
r 0.60904 3 2 ack 40 ------- 1 6.0 0.0 11 30
+ 0.60904 2 0 ack 40 ------- 1 6.0 0.0 11 30
- 0.60904 2 0 ack 40 ------- 1 6.0 0.0 11 30
r 0.60936 3 4 tcp 1040 ------- 1 0.0 6.0 14 21
+ 0.60936 4 6 tcp 1040 ------- 1 0.0 6.0 14 21
- 0.60936 4 6 tcp 1040 ------- 1 0.0 6.0 14 21
- 0.61104 0 2 tcp 1040 ------- 1 0.0 6.0 22 35
r 0.61104 4 6 tcp 1040 ------- 1 0.0 6.0 13 20
+ 0.61104 6 4 ack 40 ------- 1 6.0 0.0 13 36
- 0.61104 6 4 ack 40 ------- 1 6.0 0.0 13 36
r 0.61272 0 2 tcp 1040 ------- 1 0.0 6.0 20 32
+ 0.61272 2 3 tcp 1040 ------- 1 0.0 6.0 20 32
- 0.61432 2 3 tcp 1040 ------- 1 0.0 6.0 17 28
r 0.61504 4 3 ack 40 ------- 1 6.0 0.0 12 33
+ 0.61504 3 2 ack 40 ------- 1 6.0 0.0 12 33
- 0.61504 3 2 ack 40 ------- 1 6.0 0.0 12 33
r 0.61936 2 0 ack 40 ------- 1 6.0 0.0 11 30
+ 0.61936 0 2 tcp 1040 ------- 1 0.0 6.0 23 37
- 0.61936 0 2 tcp 1040 ------- 1 0.0 6.0 23 37
+ 0.61936 0 2 tcp 1040 ------- 1 0.0 6.0 24 38
r 0.62104 0 2 tcp 1040 ------- 1 0.0 6.0 21 34
+ 0.62104 2 3 tcp 1040 ------- 1 0.0 6.0 21 34
r 0.62136 6 4 ack 40 ------- 1 6.0 0.0 13 36
+ 0.62136 4 3 ack 40 ------- 1 6.0 0.0 13 36
- 0.62136 4 3 ack 40 ------- 1 6.0 0.0 13 36
r 0.62432 2 3 tcp 1040 ------- 1 0.0 6.0 16 26
+ 0.62432 3 4 tcp 1040 ------- 1 0.0 6.0 16 26
- 0.62432 3 4 tcp 1040 ------- 1 0.0 6.0 16 26
r 0.62568 3 2 ack 40 ------- 1 6.0 0.0 12 33
+ 0.62568 2 0 ack 40 ------- 1 6.0 0.0 12 33
- 0.62568 2 0 ack 40 ------- 1 6.0 0.0 12 33
r 0.626 3 4 tcp 1040 ------- 1 0.0 6.0 15 25
+ 0.626 4 6 tcp 1040 ------- 1 0.0 6.0 15 25
- 0.626 4 6 tcp 1040 ------- 1 0.0 6.0 15 25
r 0.62768 4 6 tcp 1040 ------- 1 0.0 6.0 14 21
+ 0.62768 6 4 ack 40 ------- 1 6.0 0.0 14 39
- 0.62768 6 4 ack 40 ------- 1 6.0 0.0 14 39
- 0.62768 0 2 tcp 1040 ------- 1 0.0 6.0 24 38
r 0.62936 0 2 tcp 1040 ------- 1 0.0 6.0 22 35
+ 0.62936 2 3 tcp 1040 ------- 1 0.0 6.0 22 35
- 0.63096 2 3 tcp 1040 ------- 1 0.0 6.0 18 29
r 0.63168 4 3 ack 40 ------- 1 6.0 0.0 13 36
+ 0.63168 3 2 ack 40 ------- 1 6.0 0.0 13 36
- 0.63168 3 2 ack 40 ------- 1 6.0 0.0 13 36
r 0.636 2 0 ack 40 ------- 1 6.0 0.0 12 33
+ 0.636 0 2 tcp 1040 ------- 1 0.0 6.0 25 40
+ 0.636 0 2 tcp 1040 ------- 1 0.0 6.0 26 41
- 0.636 0 2 tcp 1040 ------- 1 0.0 6.0 25 40
r 0.63768 0 2 tcp 1040 ------- 1 0.0 6.0 23 37
+ 0.63768 2 3 tcp 1040 ------- 1 0.0 6.0 23 37
r 0.638 6 4 ack 40 ------- 1 6.0 0.0 14 39
+ 0.638 4 3 ack 40 ------- 1 6.0 0.0 14 39
- 0.638 4 3 ack 40 ------- 1 6.0 0.0 14 39
r 0.64096 2 3 tcp 1040 ------- 1 0.0 6.0 17 28
+ 0.64096 3 4 tcp 1040 ------- 1 0.0 6.0 17 28
- 0.64096 3 4 tcp 1040 ------- 1 0.0 6.0 17 28
r 0.64232 3 2 ack 40 ------- 1 6.0 0.0 13 36
+ 0.64232 2 0 ack 40 ------- 1 6.0 0.0 13 36
- 0.64232 2 0 ack 40 ------- 1 6.0 0.0 13 36
r 0.64264 3 4 tcp 1040 ------- 1 0.0 6.0 16 26
+ 0.64264 4 6 tcp 1040 ------- 1 0.0 6.0 16 26
- 0.64264 4 6 tcp 1040 ------- 1 0.0 6.0 16 26
r 0.64432 4 6 tcp 1040 ------- 1 0.0 6.0 15 25
+ 0.64432 6 4 ack 40 ------- 1 6.0 0.0 15 42
- 0.64432 6 4 ack 40 ------- 1 6.0 0.0 15 42
- 0.64432 0 2 tcp 1040 ------- 1 0.0 6.0 26 41
r 0.646 0 2 tcp 1040 ------- 1 0.0 6.0 24 38
+ 0.646 2 3 tcp 1040 ------- 1 0.0 6.0 24 38
- 0.6476 2 3 tcp 1040 ------- 1 0.0 6.0 19 31
r 0.64832 4 3 ack 40 ------- 1 6.0 0.0 14 39
+ 0.64832 3 2 ack 40 ------- 1 6.0 0.0 14 39
- 0.64832 3 2 ack 40 ------- 1 6.0 0.0 14 39
r 0.65264 2 0 ack 40 ------- 1 6.0 0.0 13 36
+ 0.65264 0 2 tcp 1040 ------- 1 0.0 6.0 27 43
+ 0.65264 0 2 tcp 1040 ------- 1 0.0 6.0 28 44
- 0.65264 0 2 tcp 1040 ------- 1 0.0 6.0 27 43
r 0.65432 0 2 tcp 1040 ------- 1 0.0 6.0 25 40
+ 0.65432 2 3 tcp 1040 ------- 1 0.0 6.0 25 40
r 0.65464 6 4 ack 40 ------- 1 6.0 0.0 15 42
+ 0.65464 4 3 ack 40 ------- 1 6.0 0.0 15 42
- 0.65464 4 3 ack 40 ------- 1 6.0 0.0 15 42
r 0.6576 2 3 tcp 1040 ------- 1 0.0 6.0 18 29
+ 0.6576 3 4 tcp 1040 ------- 1 0.0 6.0 18 29
- 0.6576 3 4 tcp 1040 ------- 1 0.0 6.0 18 29
r 0.65896 3 2 ack 40 ------- 1 6.0 0.0 14 39
+ 0.65896 2 0 ack 40 ------- 1 6.0 0.0 14 39
- 0.65896 2 0 ack 40 ------- 1 6.0 0.0 14 39
r 0.65928 3 4 tcp 1040 ------- 1 0.0 6.0 17 28
+ 0.65928 4 6 tcp 1040 ------- 1 0.0 6.0 17 28
- 0.65928 4 6 tcp 1040 ------- 1 0.0 6.0 17 28
r 0.66096 4 6 tcp 1040 ------- 1 0.0 6.0 16 26
+ 0.66096 6 4 ack 40 ------- 1 6.0 0.0 16 45
- 0.66096 6 4 ack 40 ------- 1 6.0 0.0 16 45
- 0.66096 0 2 tcp 1040 ------- 1 0.0 6.0 28 44
r 0.66264 0 2 tcp 1040 ------- 1 0.0 6.0 26 41
+ 0.66264 2 3 tcp 1040 ------- 1 0.0 6.0 26 41
- 0.66424 2 3 tcp 1040 ------- 1 0.0 6.0 20 32
r 0.66496 4 3 ack 40 ------- 1 6.0 0.0 15 42
+ 0.66496 3 2 ack 40 ------- 1 6.0 0.0 15 42
- 0.66496 3 2 ack 40 ------- 1 6.0 0.0 15 42
r 0.66928 2 0 ack 40 ------- 1 6.0 0.0 14 39
+ 0.66928 0 2 tcp 1040 ------- 1 0.0 6.0 29 46
+ 0.66928 0 2 tcp 1040 ------- 1 0.0 6.0 30 47
- 0.66928 0 2 tcp 1040 ------- 1 0.0 6.0 29 46
r 0.67096 0 2 tcp 1040 ------- 1 0.0 6.0 27 43
+ 0.67096 2 3 tcp 1040 ------- 1 0.0 6.0 27 43
r 0.67128 6 4 ack 40 ------- 1 6.0 0.0 16 45
+ 0.67128 4 3 ack 40 ------- 1 6.0 0.0 16 45
- 0.67128 4 3 ack 40 ------- 1 6.0 0.0 16 45
r 0.67424 2 3 tcp 1040 ------- 1 0.0 6.0 19 31
+ 0.67424 3 4 tcp 1040 ------- 1 0.0 6.0 19 31
- 0.67424 3 4 tcp 1040 ------- 1 0.0 6.0 19 31
r 0.6756 3 2 ack 40 ------- 1 6.0 0.0 15 42
+ 0.6756 2 0 ack 40 ------- 1 6.0 0.0 15 42
- 0.6756 2 0 ack 40 ------- 1 6.0 0.0 15 42
r 0.67592 3 4 tcp 1040 ------- 1 0.0 6.0 18 29
+ 0.67592 4 6 tcp 1040 ------- 1 0.0 6.0 18 29
- 0.67592 4 6 tcp 1040 ------- 1 0.0 6.0 18 29
r 0.6776 4 6 tcp 1040 ------- 1 0.0 6.0 17 28
+ 0.6776 6 4 ack 40 ------- 1 6.0 0.0 17 48
- 0.6776 6 4 ack 40 ------- 1 6.0 0.0 17 48
- 0.6776 0 2 tcp 1040 ------- 1 0.0 6.0 30 47
r 0.67928 0 2 tcp 1040 ------- 1 0.0 6.0 28 44
+ 0.67928 2 3 tcp 1040 ------- 1 0.0 6.0 28 44
- 0.68088 2 3 tcp 1040 ------- 1 0.0 6.0 21 34
r 0.6816 4 3 ack 40 ------- 1 6.0 0.0 16 45
+ 0.6816 3 2 ack 40 ------- 1 6.0 0.0 16 45
- 0.6816 3 2 ack 40 ------- 1 6.0 0.0 16 45
r 0.68592 2 0 ack 40 ------- 1 6.0 0.0 15 42
+ 0.68592 0 2 tcp 1040 ------- 1 0.0 6.0 31 49
+ 0.68592 0 2 tcp 1040 ------- 1 0.0 6.0 32 50
- 0.68592 0 2 tcp 1040 ------- 1 0.0 6.0 31 49
r 0.6876 0 2 tcp 1040 ------- 1 0.0 6.0 29 46
+ 0.6876 2 3 tcp 1040 ------- 1 0.0 6.0 29 46
r 0.68792 6 4 ack 40 ------- 1 6.0 0.0 17 48
+ 0.68792 4 3 ack 40 ------- 1 6.0 0.0 17 48
- 0.68792 4 3 ack 40 ------- 1 6.0 0.0 17 48
r 0.69088 2 3 tcp 1040 ------- 1 0.0 6.0 20 32
+ 0.69088 3 4 tcp 1040 ------- 1 0.0 6.0 20 32
- 0.69088 3 4 tcp 1040 ------- 1 0.0 6.0 20 32
r 0.69224 3 2 ack 40 ------- 1 6.0 0.0 16 45
+ 0.69224 2 0 ack 40 ------- 1 6.0 0.0 16 45
- 0.69224 2 0 ack 40 ------- 1 6.0 0.0 16 45
r 0.69256 3 4 tcp 1040 ------- 1 0.0 6.0 19 31
+ 0.69256 4 6 tcp 1040 ------- 1 0.0 6.0 19 31
- 0.69256 4 6 tcp 1040 ------- 1 0.0 6.0 19 31
r 0.69424 4 6 tcp 1040 ------- 1 0.0 6.0 18 29
+ 0.69424 6 4 ack 40 ------- 1 6.0 0.0 18 51
- 0.69424 6 4 ack 40 ------- 1 6.0 0.0 18 51
- 0.69424 0 2 tcp 1040 ------- 1 0.0 6.0 32 50
r 0.69592 0 2 tcp 1040 ------- 1 0.0 6.0 30 47
+ 0.69592 2 3 tcp 1040 ------- 1 0.0 6.0 30 47
- 0.69752 2 3 tcp 1040 ------- 1 0.0 6.0 22 35
r 0.69824 4 3 ack 40 ------- 1 6.0 0.0 17 48
+ 0.69824 3 2 ack 40 ------- 1 6.0 0.0 17 48
- 0.69824 3 2 ack 40 ------- 1 6.0 0.0 17 48
r 0.70256 2 0 ack 40 ------- 1 6.0 0.0 16 45
+ 0.70256 0 2 tcp 1040 ------- 1 0.0 6.0 33 52
+ 0.70256 0 2 tcp 1040 ------- 1 0.0 6.0 34 53
- 0.70256 0 2 tcp 1040 ------- 1 0.0 6.0 33 52
r 0.70424 0 2 tcp 1040 ------- 1 0.0 6.0 31 49
+ 0.70424 2 3 tcp 1040 ------- 1 0.0 6.0 31 49
r 0.70456 6 4 ack 40 ------- 1 6.0 0.0 18 51
+ 0.70456 4 3 ack 40 ------- 1 6.0 0.0 18 51
- 0.70456 4 3 ack 40 ------- 1 6.0 0.0 18 51
r 0.70752 2 3 tcp 1040 ------- 1 0.0 6.0 21 34
+ 0.70752 3 4 tcp 1040 ------- 1 0.0 6.0 21 34
- 0.70752 3 4 tcp 1040 ------- 1 0.0 6.0 21 34
r 0.70888 3 2 ack 40 ------- 1 6.0 0.0 17 48
+ 0.70888 2 0 ack 40 ------- 1 6.0 0.0 17 48
- 0.70888 2 0 ack 40 ------- 1 6.0 0.0 17 48
r 0.7092 3 4 tcp 1040 ------- 1 0.0 6.0 20 32
+ 0.7092 4 6 tcp 1040 ------- 1 0.0 6.0 20 32
- 0.7092 4 6 tcp 1040 ------- 1 0.0 6.0 20 32
r 0.71088 4 6 tcp 1040 ------- 1 0.0 6.0 19 31
+ 0.71088 6 4 ack 40 ------- 1 6.0 0.0 19 54
- 0.71088 6 4 ack 40 ------- 1 6.0 0.0 19 54
- 0.71088 0 2 tcp 1040 ------- 1 0.0 6.0 34 53
r 0.71256 0 2 tcp 1040 ------- 1 0.0 6.0 32 50
+ 0.71256 2 3 tcp 1040 ------- 1 0.0 6.0 32 50
- 0.71416 2 3 tcp 1040 ------- 1 0.0 6.0 23 37
r 0.71488 4 3 ack 40 ------- 1 6.0 0.0 18 51
+ 0.71488 3 2 ack 40 ------- 1 6.0 0.0 18 51
- 0.71488 3 2 ack 40 ------- 1 6.0 0.0 18 51
r 0.7192 2 0 ack 40 ------- 1 6.0 0.0 17 48
+ 0.7192 0 2 tcp 1040 ------- 1 0.0 6.0 35 55
+ 0.7192 0 2 tcp 1040 ------- 1 0.0 6.0 36 56
- 0.7192 0 2 tcp 1040 ------- 1 0.0 6.0 35 55
r 0.72088 0 2 tcp 1040 ------- 1 0.0 6.0 33 52
+ 0.72088 2 3 tcp 1040 ------- 1 0.0 6.0 33 52
r 0.7212 6 4 ack 40 ------- 1 6.0 0.0 19 54
+ 0.7212 4 3 ack 40 ------- 1 6.0 0.0 19 54
- 0.7212 4 3 ack 40 ------- 1 6.0 0.0 19 54
r 0.72416 2 3 tcp 1040 ------- 1 0.0 6.0 22 35
+ 0.72416 3 4 tcp 1040 ------- 1 0.0 6.0 22 35
- 0.72416 3 4 tcp 1040 ------- 1 0.0 6.0 22 35
r 0.72552 3 2 ack 40 ------- 1 6.0 0.0 18 51
+ 0.72552 2 0 ack 40 ------- 1 6.0 0.0 18 51
- 0.72552 2 0 ack 40 ------- 1 6.0 0.0 18 51
r 0.72584 3 4 tcp 1040 ------- 1 0.0 6.0 21 34
+ 0.72584 4 6 tcp 1040 ------- 1 0.0 6.0 21 34
- 0.72584 4 6 tcp 1040 ------- 1 0.0 6.0 21 34
r 0.72752 4 6 tcp 1040 ------- 1 0.0 6.0 20 32
+ 0.72752 6 4 ack 40 ------- 1 6.0 0.0 20 57
- 0.72752 6 4 ack 40 ------- 1 6.0 0.0 20 57
- 0.72752 0 2 tcp 1040 ------- 1 0.0 6.0 36 56
r 0.7292 0 2 tcp 1040 ------- 1 0.0 6.0 34 53
+ 0.7292 2 3 tcp 1040 ------- 1 0.0 6.0 34 53
- 0.7308 2 3 tcp 1040 ------- 1 0.0 6.0 24 38
r 0.73152 4 3 ack 40 ------- 1 6.0 0.0 19 54
+ 0.73152 3 2 ack 40 ------- 1 6.0 0.0 19 54
- 0.73152 3 2 ack 40 ------- 1 6.0 0.0 19 54
r 0.73584 2 0 ack 40 ------- 1 6.0 0.0 18 51
+ 0.73584 0 2 tcp 1040 ------- 1 0.0 6.0 37 58
+ 0.73584 0 2 tcp 1040 ------- 1 0.0 6.0 38 59
- 0.73584 0 2 tcp 1040 ------- 1 0.0 6.0 37 58
r 0.73752 0 2 tcp 1040 ------- 1 0.0 6.0 35 55
+ 0.73752 2 3 tcp 1040 ------- 1 0.0 6.0 35 55
r 0.73784 6 4 ack 40 ------- 1 6.0 0.0 20 57
+ 0.73784 4 3 ack 40 ------- 1 6.0 0.0 20 57
- 0.73784 4 3 ack 40 ------- 1 6.0 0.0 20 57
r 0.7408 2 3 tcp 1040 ------- 1 0.0 6.0 23 37
+ 0.7408 3 4 tcp 1040 ------- 1 0.0 6.0 23 37
- 0.7408 3 4 tcp 1040 ------- 1 0.0 6.0 23 37
r 0.74216 3 2 ack 40 ------- 1 6.0 0.0 19 54
+ 0.74216 2 0 ack 40 ------- 1 6.0 0.0 19 54
- 0.74216 2 0 ack 40 ------- 1 6.0 0.0 19 54
r 0.74248 3 4 tcp 1040 ------- 1 0.0 6.0 22 35
+ 0.74248 4 6 tcp 1040 ------- 1 0.0 6.0 22 35
- 0.74248 4 6 tcp 1040 ------- 1 0.0 6.0 22 35
r 0.74416 4 6 tcp 1040 ------- 1 0.0 6.0 21 34
+ 0.74416 6 4 ack 40 ------- 1 6.0 0.0 21 60
- 0.74416 6 4 ack 40 ------- 1 6.0 0.0 21 60
- 0.74416 0 2 tcp 1040 ------- 1 0.0 6.0 38 59
r 0.74584 0 2 tcp 1040 ------- 1 0.0 6.0 36 56
+ 0.74584 2 3 tcp 1040 ------- 1 0.0 6.0 36 56
- 0.74744 2 3 tcp 1040 ------- 1 0.0 6.0 25 40
r 0.74816 4 3 ack 40 ------- 1 6.0 0.0 20 57
+ 0.74816 3 2 ack 40 ------- 1 6.0 0.0 20 57
- 0.74816 3 2 ack 40 ------- 1 6.0 0.0 20 57
r 0.75248 2 0 ack 40 ------- 1 6.0 0.0 19 54
+ 0.75248 0 2 tcp 1040 ------- 1 0.0 6.0 39 61
- 0.75248 0 2 tcp 1040 ------- 1 0.0 6.0 39 61
r 0.75416 0 2 tcp 1040 ------- 1 0.0 6.0 37 58
+ 0.75416 2 3 tcp 1040 ------- 1 0.0 6.0 37 58
r 0.75448 6 4 ack 40 ------- 1 6.0 0.0 21 60
+ 0.75448 4 3 ack 40 ------- 1 6.0 0.0 21 60
- 0.75448 4 3 ack 40 ------- 1 6.0 0.0 21 60
r 0.75744 2 3 tcp 1040 ------- 1 0.0 6.0 24 38
+ 0.75744 3 4 tcp 1040 ------- 1 0.0 6.0 24 38
- 0.75744 3 4 tcp 1040 ------- 1 0.0 6.0 24 38
r 0.7588 3 2 ack 40 ------- 1 6.0 0.0 20 57
+ 0.7588 2 0 ack 40 ------- 1 6.0 0.0 20 57
- 0.7588 2 0 ack 40 ------- 1 6.0 0.0 20 57
r 0.75912 3 4 tcp 1040 ------- 1 0.0 6.0 23 37
+ 0.75912 4 6 tcp 1040 ------- 1 0.0 6.0 23 37
- 0.75912 4 6 tcp 1040 ------- 1 0.0 6.0 23 37
r 0.7608 4 6 tcp 1040 ------- 1 0.0 6.0 22 35
+ 0.7608 6 4 ack 40 ------- 1 6.0 0.0 22 62
- 0.7608 6 4 ack 40 ------- 1 6.0 0.0 22 62
r 0.76248 0 2 tcp 1040 ------- 1 0.0 6.0 38 59
+ 0.76248 2 3 tcp 1040 ------- 1 0.0 6.0 38 59
- 0.76408 2 3 tcp 1040 ------- 1 0.0 6.0 26 41
r 0.7648 4 3 ack 40 ------- 1 6.0 0.0 21 60
+ 0.7648 3 2 ack 40 ------- 1 6.0 0.0 21 60
- 0.7648 3 2 ack 40 ------- 1 6.0 0.0 21 60
r 0.76912 2 0 ack 40 ------- 1 6.0 0.0 20 57
+ 0.76912 0 2 tcp 1040 ------- 1 0.0 6.0 40 63
- 0.76912 0 2 tcp 1040 ------- 1 0.0 6.0 40 63
r 0.7708 0 2 tcp 1040 ------- 1 0.0 6.0 39 61
+ 0.7708 2 3 tcp 1040 ------- 1 0.0 6.0 39 61
r 0.77112 6 4 ack 40 ------- 1 6.0 0.0 22 62
+ 0.77112 4 3 ack 40 ------- 1 6.0 0.0 22 62
- 0.77112 4 3 ack 40 ------- 1 6.0 0.0 22 62
r 0.77408 2 3 tcp 1040 ------- 1 0.0 6.0 25 40
+ 0.77408 3 4 tcp 1040 ------- 1 0.0 6.0 25 40
- 0.77408 3 4 tcp 1040 ------- 1 0.0 6.0 25 40
r 0.77544 3 2 ack 40 ------- 1 6.0 0.0 21 60
+ 0.77544 2 0 ack 40 ------- 1 6.0 0.0 21 60
- 0.77544 2 0 ack 40 ------- 1 6.0 0.0 21 60
r 0.77576 3 4 tcp 1040 ------- 1 0.0 6.0 24 38
+ 0.77576 4 6 tcp 1040 ------- 1 0.0 6.0 24 38
- 0.77576 4 6 tcp 1040 ------- 1 0.0 6.0 24 38
r 0.77744 4 6 tcp 1040 ------- 1 0.0 6.0 23 37
+ 0.77744 6 4 ack 40 ------- 1 6.0 0.0 23 64
- 0.77744 6 4 ack 40 ------- 1 6.0 0.0 23 64
- 0.78072 2 3 tcp 1040 ------- 1 0.0 6.0 27 43
r 0.78144 4 3 ack 40 ------- 1 6.0 0.0 22 62
+ 0.78144 3 2 ack 40 ------- 1 6.0 0.0 22 62
- 0.78144 3 2 ack 40 ------- 1 6.0 0.0 22 62
r 0.78576 2 0 ack 40 ------- 1 6.0 0.0 21 60
+ 0.78576 0 2 tcp 1040 ------- 1 0.0 6.0 41 65
- 0.78576 0 2 tcp 1040 ------- 1 0.0 6.0 41 65
r 0.78744 0 2 tcp 1040 ------- 1 0.0 6.0 40 63
+ 0.78744 2 3 tcp 1040 ------- 1 0.0 6.0 40 63
r 0.78776 6 4 ack 40 ------- 1 6.0 0.0 23 64
+ 0.78776 4 3 ack 40 ------- 1 6.0 0.0 23 64
- 0.78776 4 3 ack 40 ------- 1 6.0 0.0 23 64
r 0.79072 2 3 tcp 1040 ------- 1 0.0 6.0 26 41
+ 0.79072 3 4 tcp 1040 ------- 1 0.0 6.0 26 41
- 0.79072 3 4 tcp 1040 ------- 1 0.0 6.0 26 41
r 0.79208 3 2 ack 40 ------- 1 6.0 0.0 22 62
+ 0.79208 2 0 ack 40 ------- 1 6.0 0.0 22 62
- 0.79208 2 0 ack 40 ------- 1 6.0 0.0 22 62
r 0.7924 3 4 tcp 1040 ------- 1 0.0 6.0 25 40
+ 0.7924 4 6 tcp 1040 ------- 1 0.0 6.0 25 40
- 0.7924 4 6 tcp 1040 ------- 1 0.0 6.0 25 40
r 0.79408 4 6 tcp 1040 ------- 1 0.0 6.0 24 38
+ 0.79408 6 4 ack 40 ------- 1 6.0 0.0 24 66
- 0.79408 6 4 ack 40 ------- 1 6.0 0.0 24 66
- 0.79736 2 3 tcp 1040 ------- 1 0.0 6.0 28 44