M 3.00000 0 (1.00, 1.00, 0.00), (400.00, 400.00), 50.00
M 3.00000 1 (100.00, 100.00, 0.00), (1.00, 1.00), 50.00
s 3.000000000 _0_ AGT  --- 0 tcp 40 [0 0 0 0] ------- [0:0 1:0 32 0] [0 0] 0 0
r 3.000000000 _0_ RTR  --- 0 tcp 40 [0 0 0 0] ------- [0:0 1:0 32 0] [0 0] 0 0
s 3.000000000 _0_ RTR  --- 0 AODV 48 [0 0 0 0] ------- [0:255 -1:255 30 0] [0x2 1 1 [1 0] [0 4]] (REQUEST)
s 3.000115000 _0_ MAC  --- 0 AODV 106 [0 ffffffff 0 800] ------- [0:255 -1:255 30 0] [0x2 1 1 [1 0] [0 4]] (REQUEST)
r 3.000963467 _1_ MAC  --- 0 AODV 48 [0 ffffffff 0 800] ------- [0:255 -1:255 30 0] [0x2 1 1 [1 0] [0 4]] (REQUEST)
r 3.000988467 _1_ RTR  --- 0 AODV 48 [0 ffffffff 0 800] ------- [0:255 -1:255 30 0] [0x2 1 1 [1 0] [0 4]] (REQUEST)
s 3.000988467 _1_ RTR  --- 0 AODV 44 [0 0 0 0] ------- [1:255 0:255 30 0] [0x4 1 [1 4] 10.000000] (REPLY)
s 3.001343467 _1_ MAC  --- 0 ARP 86 [0 ffffffff 1 806] ------- [REQUEST 1/1 0/0]
r 3.002031933 _0_ MAC  --- 0 ARP 28 [0 ffffffff 1 806] ------- [REQUEST 1/1 0/0]
s 3.002321933 _0_ MAC  --- 0 RTS 44 [52e 1 0 0] 
r 3.002674399 _1_ MAC  --- 0 RTS 44 [52e 1 0 0] 
s 3.002684399 _1_ MAC  --- 0 CTS 38 [3f4 0 0 0] 
r 3.002988865 _0_ MAC  --- 0 CTS 38 [3f4 0 0 0] 
s 3.002998865 _0_ MAC  --- 0 ARP 86 [13a 1 0 806] ------- [REPLY 0/0 1/1]
r 3.003687330 _1_ MAC  --- 0 ARP 28 [13a 1 0 806] ------- [REPLY 0/0 1/1]
s 3.003697330 _1_ MAC  --- 0 ACK 38 [0 0 0 0] 
r 3.004001796 _0_ MAC  --- 0 ACK 38 [0 0 0 0] 
s 3.004131330 _1_ MAC  --- 0 RTS 44 [5ae 0 1 0] 
r 3.004483796 _0_ MAC  --- 0 RTS 44 [5ae 0 1 0] 
s 3.004493796 _0_ MAC  --- 0 CTS 38 [474 1 0 0] 
r 3.004798261 _1_ MAC  --- 0 CTS 38 [474 1 0 0] 
s 3.004808261 _1_ MAC  --- 0 AODV 102 [13a 0 1 800] ------- [1:255 0:255 30 0] [0x4 1 [1 4] 10.000000] (REPLY)
r 3.005624726 _0_ MAC  --- 0 AODV 44 [13a 0 1 800] ------- [1:255 0:255 30 0] [0x4 1 [1 4] 10.000000] (REPLY)
s 3.005634726 _0_ MAC  --- 0 ACK 38 [0 1 0 0] 
r 3.005649726 _0_ RTR  --- 0 AODV 44 [13a 0 1 800] ------- [1:255 0:255 30 0] [0x4 1 [1 4] 10.000000] (REPLY)
s 3.005649726 _0_ RTR  --- 0 tcp 40 [0 0 0 0] ------- [0:0 1:0 30 1] [0 0] 0 0
r 3.005939191 _1_ MAC  --- 0 ACK 38 [0 1 0 0] 
s 3.006148726 _0_ MAC  --- 0 RTS 44 [58e 1 0 0] 
r 3.006501191 _1_ MAC  --- 0 RTS 44 [58e 1 0 0] 
s 3.006511191 _1_ MAC  --- 0 CTS 38 [454 0 0 0] 
r 3.006815655 _0_ MAC  --- 0 CTS 38 [454 0 0 0] 
s 3.006825655 _0_ MAC  --- 0 tcp 98 [13a 1 0 800] ------- [0:0 1:0 30 1] [0 0] 0 0
r 3.007610119 _1_ MAC  --- 0 tcp 40 [13a 1 0 800] ------- [0:0 1:0 30 1] [0 0] 1 0
s 3.007620119 _1_ MAC  --- 0 ACK 38 [0 0 0 0] 
r 3.007635119 _1_ AGT  --- 0 tcp 40 [13a 1 0 800] ------- [0:0 1:0 30 1] [0 0] 1 0
s 3.007635119 _1_ AGT  --- 1 ack 40 [0 0 0 0] ------- [1:0 0:0 32 0] [0 0] 0 0
r 3.007635119 _1_ RTR  --- 1 ack 40 [0 0 0 0] ------- [1:0 0:0 32 0] [0 0] 0 0
s 3.007635119 _1_ RTR  --- 1 ack 40 [0 0 0 0] ------- [1:0 0:0 30 0] [0 0] 0 0
r 3.007924584 _0_ MAC  --- 0 ACK 38 [0 0 0 0] 
s 3.008034119 _1_ MAC  --- 0 RTS 44 [58e 0 1 0] 
r 3.008386583 _0_ MAC  --- 0 RTS 44 [58e 0 1 0] 
s 3.008396583 _0_ MAC  --- 0 CTS 38 [454 1 0 0] 
r 3.008701047 _1_ MAC  --- 0 CTS 38 [454 1 0 0] 
s 3.008711047 _1_ MAC  --- 1 ack 98 [13a 0 1 800] ------- [1:0 0:0 30 0] [0 0] 0 0
r 3.009495511 _0_ MAC  --- 1 ack 40 [13a 0 1 800] ------- [1:0 0:0 30 0] [0 0] 1 0
s 3.009505511 _0_ MAC  --- 0 ACK 38 [0 1 0 0] 
r 3.009520511 _0_ AGT  --- 1 ack 40 [13a 0 1 800] ------- [1:0 0:0 30 0] [0 0] 1 0
s 3.009520511 _0_ AGT  --- 2 tcp 1040 [0 0 0 0] ------- [0:0 1:0 32 0] [1 0] 0 0
r 3.009520511 _0_ RTR  --- 2 tcp 1040 [0 0 0 0] ------- [0:0 1:0 32 0] [1 0] 0 0
s 3.009520511 _0_ AGT  --- 3 tcp 1040 [0 0 0 0] ------- [0:0 1:0 32 0] [2 0] 0 0
r 3.009520511 _0_ RTR  --- 3 tcp 1040 [0 0 0 0] ------- [0:0 1:0 32 0] [2 0] 0 0
s 3.009520511 _0_ RTR  --- 2 tcp 1040 [0 0 0 0] ------- [0:0 1:0 30 1] [1 0] 0 0
s 3.009520511 _0_ RTR  --- 3 tcp 1040 [0 0 0 0] ------- [0:0 1:0 30 1] [2 0] 0 0
r 3.009809975 _1_ MAC  --- 0 ACK 38 [0 1 0 0] 
s 3.010059511 _0_ MAC  --- 0 RTS 44 [24ce 1 0 0] 
r 3.010411974 _1_ MAC  --- 0 RTS 44 [24ce 1 0 0] 
s 3.010421974 _1_ MAC  --- 0 CTS 38 [2394 0 0 0] 
r 3.010726438 _0_ MAC  --- 0 CTS 38 [2394 0 0 0] 
s 3.010736438 _0_ MAC  --- 2 tcp 1098 [13a 1 0 800] ------- [0:0 1:0 30 1] [1 0] 0 0
r 3.019520901 _1_ MAC  --- 2 tcp 1040 [13a 1 0 800] ------- [0:0 1:0 30 1] [1 0] 1 0
s 3.019530901 _1_ MAC  --- 0 ACK 38 [0 0 0 0] 
r 3.019545901 _1_ AGT  --- 2 tcp 1040 [13a 1 0 800] ------- [0:0 1:0 30 1] [1 0] 1 0
s 3.019545901 _1_ AGT  --- 4 ack 40 [0 0 0 0] ------- [1:0 0:0 32 0] [1 0] 0 0
r 3.019545901 _1_ RTR  --- 4 ack 40 [0 0 0 0] ------- [1:0 0:0 32 0] [1 0] 0 0
s 3.019545901 _1_ RTR  --- 4 ack 40 [0 0 0 0] ------- [1:0 0:0 30 0] [1 0] 0 0
r 3.019835361 _0_ MAC  --- 0 ACK 38 [0 0 0 0] 
s 3.020064901 _1_ MAC  --- 0 RTS 44 [58e 0 1 0] 
r 3.020417361 _0_ MAC  --- 0 RTS 44 [58e 0 1 0] 
s 3.020427361 _0_ MAC  --- 0 CTS 38 [454 1 0 0] 
r 3.020731821 _1_ MAC  --- 0 CTS 38 [454 1 0 0] 
s 3.020741821 _1_ MAC  --- 4 ack 98 [13a 0 1 800] ------- [1:0 0:0 30 0] [1 0] 0 0
r 3.021526280 _0_ MAC  --- 4 ack 40 [13a 0 1 800] ------- [1:0 0:0 30 0] [1 0] 1 0
s 3.021536280 _0_ MAC  --- 0 ACK 38 [0 1 0 0] 
r 3.021551280 _0_ AGT  --- 4 ack 40 [13a 0 1 800] ------- [1:0 0:0 30 0] [1 0] 1 0
s 3.021551280 _0_ AGT  --- 5 tcp 1040 [0 0 0 0] ------- [0:0 1:0 32 0] [3 0] 0 0
r 3.021551280 _0_ RTR  --- 5 tcp 1040 [0 0 0 0] ------- [0:0 1:0 32 0] [3 0] 0 0
s 3.021551280 _0_ AGT  --- 6 tcp 1040 [0 0 0 0] ------- [0:0 1:0 32 0] [4 0] 0 0
r 3.021551280 _0_ RTR  --- 6 tcp 1040 [0 0 0 0] ------- [0:0 1:0 32 0] [4 0] 0 0
s 3.021551280 _0_ RTR  --- 5 tcp 1040 [0 0 0 0] ------- [0:0 1:0 30 1] [3 0] 0 0
s 3.021551280 _0_ RTR  --- 6 tcp 1040 [0 0 0 0] ------- [0:0 1:0 30 1] [4 0] 0 0
r 3.021840740 _1_ MAC  --- 0 ACK 38 [0 1 0 0] 
s 3.021990280 _0_ MAC  --- 0 RTS 44 [24ce 1 0 0] 
r 3.022342740 _1_ MAC  --- 0 RTS 44 [24ce 1 0 0] 
s 3.022352740 _1_ MAC  --- 0 CTS 38 [2394 0 0 0] 
r 3.022657199 _0_ MAC  --- 0 CTS 38 [2394 0 0 0] 
s 3.022667199 _0_ MAC  --- 3 tcp 1098 [13a 1 0 800] ------- [0:0 1:0 30 1] [2 0] 0 0
r 3.031451658 _1_ MAC  --- 3 tcp 1040 [13a 1 0 800] ------- [0:0 1:0 30 1] [2 0] 1 0
s 3.031461658 _1_ MAC  --- 0 ACK 38 [0 0 0 0] 
r 3.031476658 _1_ AGT  --- 3 tcp 1040 [13a 1 0 800] ------- [0:0 1:0 30 1] [2 0] 1 0
s 3.031476658 _1_ AGT  --- 7 ack 40 [0 0 0 0] ------- [1:0 0:0 32 0] [2 0] 0 0
r 3.031476658 _1_ RTR  --- 7 ack 40 [0 0 0 0] ------- [1:0 0:0 32 0] [2 0] 0 0
s 3.031476658 _1_ RTR  --- 7 ack 40 [0 0 0 0] ------- [1:0 0:0 30 0] [2 0] 0 0
r 3.031766114 _0_ MAC  --- 0 ACK 38 [0 0 0 0] 
s 3.031856114 _0_ MAC  --- 0 RTS 44 [24ce 1 0 0] 
r 3.032208570 _1_ MAC  --- 0 RTS 44 [24ce 1 0 0] 
s 3.032218570 _1_ MAC  --- 0 CTS 38 [2394 0 0 0] 
r 3.032523026 _0_ MAC  --- 0 CTS 38 [2394 0 0 0] 
s 3.032533026 _0_ MAC  --- 5 tcp 1098 [13a 1 0 800] ------- [0:0 1:0 30 1] [3 0] 0 0
r 3.041317482 _1_ MAC  --- 5 tcp 1040 [13a 1 0 800] ------- [0:0 1:0 30 1] [3 0] 1 0
s 3.041327482 _1_ MAC  --- 0 ACK 38 [0 0 0 0] 
r 3.041342482 _1_ AGT  --- 5 tcp 1040 [13a 1 0 800] ------- [0:0 1:0 30 1] [3 0] 1 0
s 3.041342482 _1_ AGT  --- 8 ack 40 [0 0 0 0] ------- [1:0 0:0 32 0] [3 0] 0 0
r 3.041342482 _1_ RTR  --- 8 ack 40 [0 0 0 0] ------- [1:0 0:0 32 0] [3 0] 0 0
s 3.041342482 _1_ RTR  --- 8 ack 40 [0 0 0 0] ------- [1:0 0:0 30 0] [3 0] 0 0
r 3.041631935 _0_ MAC  --- 0 ACK 38 [0 0 0 0] 
s 3.041801482 _1_ MAC  --- 0 RTS 44 [58e 0 1 0] 
r 3.042153935 _0_ MAC  --- 0 RTS 44 [58e 0 1 0] 
s 3.042163935 _0_ MAC  --- 0 CTS 38 [454 1 0 0] 
r 3.042468388 _1_ MAC  --- 0 CTS 38 [454 1 0 0] 
s 3.042478388 _1_ MAC  --- 7 ack 98 [13a 0 1 800] ------- [1:0 0:0 30 0] [2 0] 0 0
r 3.043262840 _0_ MAC  --- 7 ack 40 [13a 0 1 800] ------- [1:0 0:0 30 0] [2 0] 1 0
s 3.043272840 _0_ MAC  --- 0 ACK 38 [0 1 0 0] 
r 3.043287840 _0_ AGT  --- 7 ack 40 [13a 0 1 800] ------- [1:0 0:0 30 0] [2 0] 1 0
s 3.043287840 _0_ AGT  --- 9 tcp 1040 [0 0 0 0] ------- [0:0 1:0 32 0] [5 0] 0 0
r 3.043287840 _0_ RTR  --- 9 tcp 1040 [0 0 0 0] ------- [0:0 1:0 32 0] [5 0] 0 0
s 3.043287840 _0_ AGT  --- 10 tcp 1040 [0 0 0 0] ------- [0:0 1:0 32 0] [6 0] 0 0
r 3.043287840 _0_ RTR  --- 10 tcp 1040 [0 0 0 0] ------- [0:0 1:0 32 0] [6 0] 0 0
s 3.043287840 _0_ RTR  --- 9 tcp 1040 [0 0 0 0] ------- [0:0 1:0 30 1] [5 0] 0 0
s 3.043287840 _0_ RTR  --- 10 tcp 1040 [0 0 0 0] ------- [0:0 1:0 30 1] [6 0] 0 0
r 3.043577292 _1_ MAC  --- 0 ACK 38 [0 1 0 0] 
s 3.043787292 _1_ MAC  --- 0 RTS 44 [58e 0 1 0] 
r 3.044139745 _0_ MAC  --- 0 RTS 44 [58e 0 1 0] 
s 3.044149745 _0_ MAC  --- 0 CTS 38 [454 1 0 0] 
r 3.044454197 _1_ MAC  --- 0 CTS 38 [454 1 0 0] 
s 3.044464197 _1_ MAC  --- 8 ack 98 [13a 0 1 800] ------- [1:0 0:0 30 0] [3 0] 0 0
r 3.045248648 _0_ MAC  --- 8 ack 40 [13a 0 1 800] ------- [1:0 0:0 30 0] [3 0] 1 0
s 3.045258648 _0_ MAC  --- 0 ACK 38 [0 1 0 0] 
r 3.045273648 _0_ AGT  --- 8 ack 40 [13a 0 1 800] ------- [1:0 0:0 30 0] [3 0] 1 0
s 3.045273648 _0_ AGT  --- 11 tcp 1040 [0 0 0 0] ------- [0:0 1:0 32 0] [7 0] 0 0
r 3.045273648 _0_ RTR  --- 11 tcp 1040 [0 0 0 0] ------- [0:0 1:0 32 0] [7 0] 0 0
s 3.045273648 _0_ AGT  --- 12 tcp 1040 [0 0 0 0] ------- [0:0 1:0 32 0] [8 0] 0 0
r 3.045273648 _0_ RTR  --- 12 tcp 1040 [0 0 0 0] ------- [0:0 1:0 32 0] [8 0] 0 0
s 3.045273648 _0_ RTR  --- 11 tcp 1040 [0 0 0 0] ------- [0:0 1:0 30 1] [7 0] 0 0
s 3.045273648 _0_ RTR  --- 12 tcp 1040 [0 0 0 0] ------- [0:0 1:0 30 1] [8 0] 0 0
r 3.045563100 _1_ MAC  --- 0 ACK 38 [0 1 0 0] 
s 3.045892648 _0_ MAC  --- 0 RTS 44 [24ce 1 0 0] 
r 3.046245100 _1_ MAC  --- 0 RTS 44 [24ce 1 0 0] 
s 3.046255100 _1_ MAC  --- 0 CTS 38 [2394 0 0 0] 
r 3.046559551 _0_ MAC  --- 0 CTS 38 [2394 0 0 0] 
s 3.046569551 _0_ MAC  --- 6 tcp 1098 [13a 1 0 800] ------- [0:0 1:0 30 1] [4 0] 0 0
r 3.055354002 _1_ MAC  --- 6 tcp 1040 [13a 1 0 800] ------- [0:0 1:0 30 1] [4 0] 1 0
s 3.055364002 _1_ MAC  --- 0 ACK 38 [0 0 0 0] 
r 3.055379002 _1_ AGT  --- 6 tcp 1040 [13a 1 0 800] ------- [0:0 1:0 30 1] [4 0] 1 0
s 3.055379002 _1_ AGT  --- 13 ack 40 [0 0 0 0] ------- [1:0 0:0 32 0] [4 0] 0 0
r 3.055379002 _1_ RTR  --- 13 ack 40 [0 0 0 0] ------- [1:0 0:0 32 0] [4 0] 0 0
s 3.055379002 _1_ RTR  --- 13 ack 40 [0 0 0 0] ------- [1:0 0:0 30 0] [4 0] 0 0
r 3.055668450 _0_ MAC  --- 0 ACK 38 [0 0 0 0] 
s 3.055818002 _1_ MAC  --- 0 RTS 44 [58e 0 1 0] 
r 3.056170450 _0_ MAC  --- 0 RTS 44 [58e 0 1 0] 
s 3.056180450 _0_ MAC  --- 0 CTS 38 [454 1 0 0] 
r 3.056484898 _1_ MAC  --- 0 CTS 38 [454 1 0 0] 
s 3.056494898 _1_ MAC  --- 13 ack 98 [13a 0 1 800] ------- [1:0 0:0 30 0] [4 0] 0 0
r 3.057279346 _0_ MAC  --- 13 ack 40 [13a 0 1 800] ------- [1:0 0:0 30 0] [4 0] 1 0
s 3.057289346 _0_ MAC  --- 0 ACK 38 [0 1 0 0] 
r 3.057304346 _0_ AGT  --- 13 ack 40 [13a 0 1 800] ------- [1:0 0:0 30 0] [4 0] 1 0
s 3.057304346 _0_ AGT  --- 14 tcp 1040 [0 0 0 0] ------- [0:0 1:0 32 0] [9 0] 0 0
r 3.057304346 _0_ RTR  --- 14 tcp 1040 [0 0 0 0] ------- [0:0 1:0 32 0] [9 0] 0 0
s 3.057304346 _0_ AGT  --- 15 tcp 1040 [0 0 0 0] ------- [0:0 1:0 32 0] [10 0] 0 0
r 3.057304346 _0_ RTR  --- 15 tcp 1040 [0 0 0 0] ------- [0:0 1:0 32 0] [10 0] 0 0
s 3.057304346 _0_ RTR  --- 14 tcp 1040 [0 0 0 0] ------- [0:0 1:0 30 1] [9 0] 0 0
s 3.057304346 _0_ RTR  --- 15 tcp 1040 [0 0 0 0] ------- [0:0 1:0 30 1] [10 0] 0 0
r 3.057593794 _1_ MAC  --- 0 ACK 38 [0 1 0 0] 
s 3.057803346 _0_ MAC  --- 0 RTS 44 [24ce 1 0 0] 
r 3.058155794 _1_ MAC  --- 0 RTS 44 [24ce 1 0 0] 
s 3.058165794 _1_ MAC  --- 0 CTS 38 [2394 0 0 0] 
r 3.058470241 _0_ MAC  --- 0 CTS 38 [2394 0 0 0] 
s 3.058480241 _0_ MAC  --- 9 tcp 1098 [13a 1 0 800] ------- [0:0 1:0 30 1] [5 0] 0 0
r 3.067264688 _1_ MAC  --- 9 tcp 1040 [13a 1 0 800] ------- [0:0 1:0 30 1] [5 0] 1 0
s 3.067274688 _1_ MAC  --- 0 ACK 38 [0 0 0 0] 
r 3.067289688 _1_ AGT  --- 9 tcp 1040 [13a 1 0 800] ------- [0:0 1:0 30 1] [5 0] 1 0
s 3.067289688 _1_ AGT  --- 16 ack 40 [0 0 0 0] ------- [1:0 0:0 32 0] [5 0] 0 0
r 3.067289688 _1_ RTR  --- 16 ack 40 [0 0 0 0] ------- [1:0 0:0 32 0] [5 0] 0 0
s 3.067289688 _1_ RTR  --- 16 ack 40 [0 0 0 0] ------- [1:0 0:0 30 0] [5 0] 0 0
r 3.067579132 _0_ MAC  --- 0 ACK 38 [0 0 0 0] 
s 3.067648688 _1_ MAC  --- 0 RTS 44 [58e 0 1 0] 
r 3.068001132 _0_ MAC  --- 0 RTS 44 [58e 0 1 0] 
s 3.068011132 _0_ MAC  --- 0 CTS 38 [454 1 0 0] 
r 3.068315576 _1_ MAC  --- 0 CTS 38 [454 1 0 0] 
s 3.068325576 _1_ MAC  --- 16 ack 98 [13a 0 1 800] ------- [1:0 0:0 30 0] [5 0] 0 0
r 3.069110020 _0_ MAC  --- 16 ack 40 [13a 0 1 800] ------- [1:0 0:0 30 0] [5 0] 1 0
s 3.069120020 _0_ MAC  --- 0 ACK 38 [0 1 0 0] 
r 3.069135020 _0_ AGT  --- 16 ack 40 [13a 0 1 800] ------- [1:0 0:0 30 0] [5 0] 1 0
s 3.069135020 _0_ AGT  --- 17 tcp 1040 [0 0 0 0] ------- [0:0 1:0 32 0] [11 0] 0 0
r 3.069135020 _0_ RTR  --- 17 tcp 1040 [0 0 0 0] ------- [0:0 1:0 32 0] [11 0] 0 0
s 3.069135020 _0_ AGT  --- 18 tcp 1040 [0 0 0 0] ------- [0:0 1:0 32 0] [12 0] 0 0
r 3.069135020 _0_ RTR  --- 18 tcp 1040 [0 0 0 0] ------- [0:0 1:0 32 0] [12 0] 0 0
s 3.069135020 _0_ RTR  --- 17 tcp 1040 [0 0 0 0] ------- [0:0 1:0 30 1] [11 0] 0 0
s 3.069135020 _0_ RTR  --- 18 tcp 1040 [0 0 0 0] ------- [0:0 1:0 30 1] [12 0] 0 0
r 3.069424464 _1_ MAC  --- 0 ACK 38 [0 1 0 0] 
s 3.069954020 _0_ MAC  --- 0 RTS 44 [24ce 1 0 0] 
r 3.070306464 _1_ MAC  --- 0 RTS 44 [24ce 1 0 0] 
s 3.070316464 _1_ MAC  --- 0 CTS 38 [2394 0 0 0] 
r 3.070620907 _0_ MAC  --- 0 CTS 38 [2394 0 0 0] 
s 3.070630907 _0_ MAC  --- 10 tcp 1098 [13a 1 0 800] ------- [0:0 1:0 30 1] [6 0] 0 0
r 3.079415350 _1_ MAC  --- 10 tcp 1040 [13a 1 0 800] ------- [0:0 1:0 30 1] [6 0] 1 0
s 3.079425350 _1_ MAC  --- 0 ACK 38 [0 0 0 0] 
r 3.079440350 _1_ AGT  --- 10 tcp 1040 [13a 1 0 800] ------- [0:0 1:0 30 1] [6 0] 1 0
s 3.079440350 _1_ AGT  --- 19 ack 40 [0 0 0 0] ------- [1:0 0:0 32 0] [6 0] 0 0
r 3.079440350 _1_ RTR  --- 19 ack 40 [0 0 0 0] ------- [1:0 0:0 32 0] [6 0] 0 0
s 3.079440350 _1_ RTR  --- 19 ack 40 [0 0 0 0] ------- [1:0 0:0 30 0] [6 0] 0 0
r 3.079729790 _0_ MAC  --- 0 ACK 38 [0 0 0 0] 
s 3.079979790 _0_ MAC  --- 0 RTS 44 [24ce 1 0 0] 
r 3.080332230 _1_ MAC  --- 0 RTS 44 [24ce 1 0 0] 
s 3.080342230 _1_ MAC  --- 0 CTS 38 [2394 0 0 0] 
r 3.080646670 _0_ MAC  --- 0 CTS 38 [2394 0 0 0] 
s 3.080656670 _0_ MAC  --- 11 tcp 1098 [13a 1 0 800] ------- [0:0 1:0 30 1] [7 0] 0 0
r 3.089441110 _1_ MAC  --- 11 tcp 1040 [13a 1 0 800] ------- [0:0 1:0 30 1] [7 0] 1 0
s 3.089451110 _1_ MAC  --- 0 ACK 38 [0 0 0 0] 
r 3.089466110 _1_ AGT  --- 11 tcp 1040 [13a 1 0 800] ------- [0:0 1:0 30 1] [7 0] 1 0
s 3.089466110 _1_ AGT  --- 20 ack 40 [0 0 0 0] ------- [1:0 0:0 32 0] [7 0] 0 0
r 3.089466110 _1_ RTR  --- 20 ack 40 [0 0 0 0] ------- [1:0 0:0 32 0] [7 0] 0 0
s 3.089466110 _1_ RTR  --- 20 ack 40 [0 0 0 0] ------- [1:0 0:0 30 0] [7 0] 0 0
r 3.089755547 _0_ MAC  --- 0 ACK 38 [0 0 0 0] 
s 3.089925110 _1_ MAC  --- 0 RTS 44 [58e 0 1 0] 
r 3.090277547 _0_ MAC  --- 0 RTS 44 [58e 0 1 0] 
s 3.090287547 _0_ MAC  --- 0 CTS 38 [454 1 0 0] 
r 3.090591983 _1_ MAC  --- 0 CTS 38 [454 1 0 0] 
s 3.090601983 _1_ MAC  --- 19 ack 98 [13a 0 1 800] ------- [1:0 0:0 30 0] [6 0] 0 0
r 3.091386420 _0_ MAC  --- 19 ack 40 [13a 0 1 800] ------- [1:0 0:0 30 0] [6 0] 1 0
s 3.091396420 _0_ MAC  --- 0 ACK 38 [0 1 0 0] 
r 3.091411420 _0_ AGT  --- 19 ack 40 [13a 0 1 800] ------- [1:0 0:0 30 0] [6 0] 1 0
s 3.091411420 _0_ AGT  --- 21 tcp 1040 [0 0 0 0] ------- [0:0 1:0 32 0] [13 0] 0 0
r 3.091411420 _0_ RTR  --- 21 tcp 1040 [0 0 0 0] ------- [0:0 1:0 32 0] [13 0] 0 0
s 3.091411420 _0_ AGT  --- 22 tcp 1040 [0 0 0 0] ------- [0:0 1:0 32 0] [14 0] 0 0
r 3.091411420 _0_ RTR  --- 22 tcp 1040 [0 0 0 0] ------- [0:0 1:0 32 0] [14 0] 0 0
s 3.091411420 _0_ RTR  --- 21 tcp 1040 [0 0 0 0] ------- [0:0 1:0 30 1] [13 0] 0 0
s 3.091411420 _0_ RTR  --- 22 tcp 1040 [0 0 0 0] ------- [0:0 1:0 30 1] [14 0] 0 0
r 3.091700856 _1_ MAC  --- 0 ACK 38 [0 1 0 0] 
s 3.091770856 _1_ MAC  --- 0 RTS 44 [58e 0 1 0] 
r 3.092123292 _0_ MAC  --- 0 RTS 44 [58e 0 1 0] 
s 3.092133292 _0_ MAC  --- 0 CTS 38 [454 1 0 0] 
r 3.092437728 _1_ MAC  --- 0 CTS 38 [454 1 0 0] 
s 3.092447728 _1_ MAC  --- 20 ack 98 [13a 0 1 800] ------- [1:0 0:0 30 0] [7 0] 0 0
r 3.093232164 _0_ MAC  --- 20 ack 40 [13a 0 1 800] ------- [1:0 0:0 30 0] [7 0] 1 0
s 3.093242164 _0_ MAC  --- 0 ACK 38 [0 1 0 0] 
r 3.093257164 _0_ AGT  --- 20 ack 40 [13a 0 1 800] ------- [1:0 0:0 30 0] [7 0] 1 0
s 3.093257164 _0_ AGT  --- 23 tcp 1040 [0 0 0 0] ------- [0:0 1:0 32 0] [15 0] 0 0
r 3.093257164 _0_ RTR  --- 23 tcp 1040 [0 0 0 0] ------- [0:0 1:0 32 0] [15 0] 0 0
s 3.093257164 _0_ AGT  --- 24 tcp 1040 [0 0 0 0] ------- [0:0 1:0 32 0] [16 0] 0 0
r 3.093257164 _0_ RTR  --- 24 tcp 1040 [0 0 0 0] ------- [0:0 1:0 32 0] [16 0] 0 0
s 3.093257164 _0_ RTR  --- 23 tcp 1040 [0 0 0 0] ------- [0:0 1:0 30 1] [15 0] 0 0
s 3.093257164 _0_ RTR  --- 24 tcp 1040 [0 0 0 0] ------- [0:0 1:0 30 1] [16 0] 0 0
r 3.093546599 _1_ MAC  --- 0 ACK 38 [0 1 0 0] 
s 3.093696164 _0_ MAC  --- 0 RTS 44 [24ce 1 0 0] 
r 3.094048599 _1_ MAC  --- 0 RTS 44 [24ce 1 0 0] 
s 3.094058599 _1_ MAC  --- 0 CTS 38 [2394 0 0 0] 
r 3.094363035 _0_ MAC  --- 0 CTS 38 [2394 0 0 0] 
s 3.094373035 _0_ MAC  --- 12 tcp 1098 [13a 1 0 800] ------- [0:0 1:0 30 1] [8 0] 0 0
r 3.103157470 _1_ MAC  --- 12 tcp 1040 [13a 1 0 800] ------- [0:0 1:0 30 1] [8 0] 1 0
s 3.103167470 _1_ MAC  --- 0 ACK 38 [0 0 0 0] 
r 3.103182470 _1_ AGT  --- 12 tcp 1040 [13a 1 0 800] ------- [0:0 1:0 30 1] [8 0] 1 0
s 3.103182470 _1_ AGT  --- 25 ack 40 [0 0 0 0] ------- [1:0 0:0 32 0] [8 0] 0 0
r 3.103182470 _1_ RTR  --- 25 ack 40 [0 0 0 0] ------- [1:0 0:0 32 0] [8 0] 0 0
s 3.103182470 _1_ RTR  --- 25 ack 40 [0 0 0 0] ------- [1:0 0:0 30 0] [8 0] 0 0
r 3.103471902 _0_ MAC  --- 0 ACK 38 [0 0 0 0] 
s 3.103681470 _1_ MAC  --- 0 RTS 44 [58e 0 1 0] 
r 3.104033902 _0_ MAC  --- 0 RTS 44 [58e 0 1 0] 
s 3.104043902 _0_ MAC  --- 0 CTS 38 [454 1 0 0] 
r 3.104348334 _1_ MAC  --- 0 CTS 38 [454 1 0 0] 
s 3.104358334 _1_ MAC  --- 25 ack 98 [13a 0 1 800] ------- [1:0 0:0 30 0] [8 0] 0 0
r 3.105142766 _0_ MAC  --- 25 ack 40 [13a 0 1 800] ------- [1:0 0:0 30 0] [8 0] 1 0
s 3.105152766 _0_ MAC  --- 0 ACK 38 [0 1 0 0] 
r 3.105167766 _0_ AGT  --- 25 ack 40 [13a 0 1 800] ------- [1:0 0:0 30 0] [8 0] 1 0
s 3.105167766 _0_ AGT  --- 26 tcp 1040 [0 0 0 0] ------- [0:0 1:0 32 0] [17 0] 0 0
r 3.105167766 _0_ RTR  --- 26 tcp 1040 [0 0 0 0] ------- [0:0 1:0 32 0] [17 0] 0 0
s 3.105167766 _0_ AGT  --- 27 tcp 1040 [0 0 0 0] ------- [0:0 1:0 32 0] [18 0] 0 0
r 3.105167766 _0_ RTR  --- 27 tcp 1040 [0 0 0 0] ------- [0:0 1:0 32 0] [18 0] 0 0
s 3.105167766 _0_ RTR  --- 26 tcp 1040 [0 0 0 0] ------- [0:0 1:0 30 1] [17 0] 0 0
s 3.105167766 _0_ RTR  --- 27 tcp 1040 [0 0 0 0] ------- [0:0 1:0 30 1] [18 0] 0 0
r 3.105457198 _1_ MAC  --- 0 ACK 38 [0 1 0 0] 
s 3.105806766 _0_ MAC  --- 0 RTS 44 [24ce 1 0 0] 
r 3.106159197 _1_ MAC  --- 0 RTS 44 [24ce 1 0 0] 
s 3.106169197 _1_ MAC  --- 0 CTS 38 [2394 0 0 0] 
r 3.106473629 _0_ MAC  --- 0 CTS 38 [2394 0 0 0] 
s 3.106483629 _0_ MAC  --- 14 tcp 1098 [13a 1 0 800] ------- [0:0 1:0 30 1] [9 0] 0 0
r 3.115268060 _1_ MAC  --- 14 tcp 1040 [13a 1 0 800] ------- [0:0 1:0 30 1] [9 0] 1 0
s 3.115278060 _1_ MAC  --- 0 ACK 38 [0 0 0 0] 
r 3.115293060 _1_ AGT  --- 14 tcp 1040 [13a 1 0 800] ------- [0:0 1:0 30 1] [9 0] 1 0
s 3.115293060 _1_ AGT  --- 28 ack 40 [0 0 0 0] ------- [1:0 0:0 32 0] [9 0] 0 0
r 3.115293060 _1_ RTR  --- 28 ack 40 [0 0 0 0] ------- [1:0 0:0 32 0] [9 0] 0 0
s 3.115293060 _1_ RTR  --- 28 ack 40 [0 0 0 0] ------- [1:0 0:0 30 0] [9 0] 0 0
r 3.115582488 _0_ MAC  --- 0 ACK 38 [0 0 0 0] 
s 3.116032488 _0_ MAC  --- 0 RTS 44 [24ce 1 0 0] 
r 3.116384916 _1_ MAC  --- 0 RTS 44 [24ce 1 0 0] 
s 3.116394916 _1_ MAC  --- 0 CTS 38 [2394 0 0 0] 
r 3.116699344 _0_ MAC  --- 0 CTS 38 [2394 0 0 0] 
s 3.116709344 _0_ MAC  --- 15 tcp 1098 [13a 1 0 800] ------- [0:0 1:0 30 1] [10 0] 0 0
r 3.125493772 _1_ MAC  --- 15 tcp 1040 [13a 1 0 800] ------- [0:0 1:0 30 1] [10 0] 1 0
s 3.125503772 _1_ MAC  --- 0 ACK 38 [0 0 0 0] 
r 3.125518772 _1_ AGT  --- 15 tcp 1040 [13a 1 0 800] ------- [0:0 1:0 30 1] [10 0] 1 0
s 3.125518772 _1_ AGT  --- 29 ack 40 [0 0 0 0] ------- [1:0 0:0 32 0] [10 0] 0 0
r 3.125518772 _1_ RTR  --- 29 ack 40 [0 0 0 0] ------- [1:0 0:0 32 0] [10 0] 0 0
s 3.125518772 _1_ RTR  --- 29 ack 40 [0 0 0 0] ------- [1:0 0:0 30 0] [10 0] 0 0
r 3.125808197 _0_ MAC  --- 0 ACK 38 [0 0 0 0] 
s 3.126037772 _1_ MAC  --- 0 RTS 44 [58e 0 1 0] 
r 3.126390196 _0_ MAC  --- 0 RTS 44 [58e 0 1 0] 
s 3.126400196 _0_ MAC  --- 0 CTS 38 [454 1 0 0] 
r 3.126704621 _1_ MAC  --- 0 CTS 38 [454 1 0 0] 
s 3.126714621 _1_ MAC  --- 28 ack 98 [13a 0 1 800] ------- [1:0 0:0 30 0] [9 0] 0 0
r 3.127499046 _0_ MAC  --- 28 ack 40 [13a 0 1 800] ------- [1:0 0:0 30 0] [9 0] 1 0
s 3.127509046 _0_ MAC  --- 0 ACK 38 [0 1 0 0] 
r 3.127524046 _0_ AGT  --- 28 ack 40 [13a 0 1 800] ------- [1:0 0:0 30 0] [9 0] 1 0
s 3.127524046 _0_ AGT  --- 30 tcp 1040 [0 0 0 0] ------- [0:0 1:0 32 0] [19 0] 0 0
r 3.127524046 _0_ RTR  --- 30 tcp 1040 [0 0 0 0] ------- [0:0 1:0 32 0] [19 0] 0 0
s 3.127524046 _0_ AGT  --- 31 tcp 1040 [0 0 0 0] ------- [0:0 1:0 32 0] [20 0] 0 0
r 3.127524046 _0_ RTR  --- 31 tcp 1040 [0 0 0 0] ------- [0:0 1:0 32 0] [20 0] 0 0
s 3.127524046 _0_ RTR  --- 30 tcp 1040 [0 0 0 0] ------- [0:0 1:0 30 1] [19 0] 0 0
s 3.127524046 _0_ RTR  --- 31 tcp 1040 [0 0 0 0] ------- [0:0 1:0 30 1] [20 0] 0 0
r 3.127813470 _1_ MAC  --- 0 ACK 38 [0 1 0 0] 
s 3.128223470 _1_ MAC  --- 0 RTS 44 [58e 0 1 0] 
r 3.128575894 _0_ MAC  --- 0 RTS 44 [58e 0 1 0] 
s 3.128585894 _0_ MAC  --- 0 CTS 38 [454 1 0 0] 
r 3.128890317 _1_ MAC  --- 0 CTS 38 [454 1 0 0] 
s 3.128900317 _1_ MAC  --- 29 ack 98 [13a 0 1 800] ------- [1:0 0:0 30 0] [10 0] 0 0
r 3.129684741 _0_ MAC  --- 29 ack 40 [13a 0 1 800] ------- [1:0 0:0 30 0] [10 0] 1 0
s 3.129694741 _0_ MAC  --- 0 ACK 38 [0 1 0 0] 
r 3.129709741 _0_ AGT  --- 29 ack 40 [13a 0 1 800] ------- [1:0 0:0 30 0] [10 0] 1 0
s 3.129709741 _0_ AGT  --- 32 tcp 1040 [0 0 0 0] ------- [0:0 1:0 32 0] [21 0] 0 0
r 3.129709741 _0_ RTR  --- 32 tcp 1040 [0 0 0 0] ------- [0:0 1:0 32 0] [21 0] 0 0
s 3.129709741 _0_ AGT  --- 33 tcp 1040 [0 0 0 0] ------- [0:0 1:0 32 0] [22 0] 0 0
r 3.129709741 _0_ RTR  --- 33 tcp 1040 [0 0 0 0] ------- [0:0 1:0 32 0] [22 0] 0 0
s 3.129709741 _0_ RTR  --- 32 tcp 1040 [0 0 0 0] ------- [0:0 1:0 30 1] [21 0] 0 0
s 3.129709741 _0_ RTR  --- 33 tcp 1040 [0 0 0 0] ------- [0:0 1:0 30 1] [22 0] 0 0
r 3.129999165 _1_ MAC  --- 0 ACK 38 [0 1 0 0] 
s 3.130068741 _0_ MAC  --- 0 RTS 44 [24ce 1 0 0] 
r 3.130421165 _1_ MAC  --- 0 RTS 44 [24ce 1 0 0] 
s 3.130431165 _1_ MAC  --- 0 CTS 38 [2394 0 0 0] 
r 3.130735588 _0_ MAC  --- 0 CTS 38 [2394 0 0 0] 
s 3.130745588 _0_ MAC  --- 17 tcp 1098 [13a 1 0 800] ------- [0:0 1:0 30 1] [11 0] 0 0
r 3.139530011 _1_ MAC  --- 17 tcp 1040 [13a 1 0 800] ------- [0:0 1:0 30 1] [11 0] 1 0
s 3.139540011 _1_ MAC  --- 0 ACK 38 [0 0 0 0] 
r 3.139555011 _1_ AGT  --- 17 tcp 1040 [13a 1 0 800] ------- [0:0 1:0 30 1] [11 0] 1 0
s 3.139555011 _1_ AGT  --- 34 ack 40 [0 0 0 0] ------- [1:0 0:0 32 0] [11 0] 0 0
r 3.139555011 _1_ RTR  --- 34 ack 40 [0 0 0 0] ------- [1:0 0:0 32 0] [11 0] 0 0
s 3.139555011 _1_ RTR  --- 34 ack 40 [0 0 0 0] ------- [1:0 0:0 30 0] [11 0] 0 0
r 3.139844431 _0_ MAC  --- 0 ACK 38 [0 0 0 0] 
s 3.139934011 _1_ MAC  --- 0 RTS 44 [58e 0 1 0] 
r 3.140286431 _0_ MAC  --- 0 RTS 44 [58e 0 1 0] 
s 3.140296431 _0_ MAC  --- 0 CTS 38 [454 1 0 0] 
r 3.140600851 _1_ MAC  --- 0 CTS 38 [454 1 0 0] 
s 3.140610851 _1_ MAC  --- 34 ack 98 [13a 0 1 800] ------- [1:0 0:0 30 0] [11 0] 0 0
r 3.141395271 _0_ MAC  --- 34 ack 40 [13a 0 1 800] ------- [1:0 0:0 30 0] [11 0] 1 0
s 3.141405271 _0_ MAC  --- 0 ACK 38 [0 1 0 0] 
r 3.141420271 _0_ AGT  --- 34 ack 40 [13a 0 1 800] ------- [1:0 0:0 30 0] [11 0] 1 0
s 3.141420271 _0_ AGT  --- 35 tcp 1040 [0 0 0 0] ------- [0:0 1:0 32 0] [23 0] 0 0
r 3.141420271 _0_ RTR  --- 35 tcp 1040 [0 0 0 0] ------- [0:0 1:0 32 0] [23 0] 0 0
s 3.141420271 _0_ AGT  --- 36 tcp 1040 [0 0 0 0] ------- [0:0 1:0 32 0] [24 0] 0 0
r 3.141420271 _0_ RTR  --- 36 tcp 1040 [0 0 0 0] ------- [0:0 1:0 32 0] [24 0] 0 0
s 3.141420271 _0_ RTR  --- 35 tcp 1040 [0 0 0 0] ------- [0:0 1:0 30 1] [23 0] 0 0
s 3.141420271 _0_ RTR  --- 36 tcp 1040 [0 0 0 0] ------- [0:0 1:0 30 1] [24 0] 0 0
r 3.141709690 _1_ MAC  --- 0 ACK 38 [0 1 0 0] 
s 3.142039271 _0_ MAC  --- 0 RTS 44 [24ce 1 0 0] 
r 3.142391690 _1_ MAC  --- 0 RTS 44 [24ce 1 0 0] 
s 3.142401690 _1_ MAC  --- 0 CTS 38 [2394 0 0 0] 
r 3.142706109 _0_ MAC  --- 0 CTS 38 [2394 0 0 0] 
s 3.142716109 _0_ MAC  --- 18 tcp 1098 [13a 1 0 800] ------- [0:0 1:0 30 1] [12 0] 0 0
r 3.151500528 _1_ MAC  --- 18 tcp 1040 [13a 1 0 800] ------- [0:0 1:0 30 1] [12 0] 1 0
s 3.151510528 _1_ MAC  --- 0 ACK 38 [0 0 0 0] 
r 3.151525528 _1_ AGT  --- 18 tcp 1040 [13a 1 0 800] ------- [0:0 1:0 30 1] [12 0] 1 0
s 3.151525528 _1_ AGT  --- 37 ack 40 [0 0 0 0] ------- [1:0 0:0 32 0] [12 0] 0 0
r 3.151525528 _1_ RTR  --- 37 ack 40 [0 0 0 0] ------- [1:0 0:0 32 0] [12 0] 0 0
s 3.151525528 _1_ RTR  --- 37 ack 40 [0 0 0 0] ------- [1:0 0:0 30 0] [12 0] 0 0
r 3.151814945 _0_ MAC  --- 0 ACK 38 [0 0 0 0] 
s 3.151964528 _1_ MAC  --- 0 RTS 44 [58e 0 1 0] 
r 3.152316944 _0_ MAC  --- 0 RTS 44 [58e 0 1 0] 
s 3.152326944 _0_ MAC  --- 0 CTS 38 [454 1 0 0] 
r 3.152631360 _1_ MAC  --- 0 CTS 38 [454 1 0 0] 
s 3.152641360 _1_ MAC  --- 37 ack 98 [13a 0 1 800] ------- [1:0 0:0 30 0] [12 0] 0 0
r 3.153425776 _0_ MAC  --- 37 ack 40 [13a 0 1 800] ------- [1:0 0:0 30 0] [12 0] 1 0
s 3.153435776 _0_ MAC  --- 0 ACK 38 [0 1 0 0] 
r 3.153450776 _0_ AGT  --- 37 ack 40 [13a 0 1 800] ------- [1:0 0:0 30 0] [12 0] 1 0
s 3.153450776 _0_ AGT  --- 38 tcp 1040 [0 0 0 0] ------- [0:0 1:0 32 0] [25 0] 0 0
r 3.153450776 _0_ RTR  --- 38 tcp 1040 [0 0 0 0] ------- [0:0 1:0 32 0] [25 0] 0 0
s 3.153450776 _0_ AGT  --- 39 tcp 1040 [0 0 0 0] ------- [0:0 1:0 32 0] [26 0] 0 0
r 3.153450776 _0_ RTR  --- 39 tcp 1040 [0 0 0 0] ------- [0:0 1:0 32 0] [26 0] 0 0
s 3.153450776 _0_ RTR  --- 38 tcp 1040 [0 0 0 0] ------- [0:0 1:0 30 1] [25 0] 0 0
s 3.153450776 _0_ RTR  --- 39 tcp 1040 [0 0 0 0] ------- [0:0 1:0 30 1] [26 0] 0 0
r 3.153740192 _1_ MAC  --- 0 ACK 38 [0 1 0 0] 
s 3.153849776 _0_ MAC  --- 0 RTS 44 [24ce 1 0 0] 
r 3.154202191 _1_ MAC  --- 0 RTS 44 [24ce 1 0 0] 
s 3.154212191 _1_ MAC  --- 0 CTS 38 [2394 0 0 0] 
r 3.154516607 _0_ MAC  --- 0 CTS 38 [2394 0 0 0] 
s 3.154526607 _0_ MAC  --- 21 tcp 1098 [13a 1 0 800] ------- [0:0 1:0 30 1] [13 0] 0 0
r 3.163311022 _1_ MAC  --- 21 tcp 1040 [13a 1 0 800] ------- [0:0 1:0 30 1] [13 0] 1 0
s 3.163321022 _1_ MAC  --- 0 ACK 38 [0 0 0 0] 
r 3.163336022 _1_ AGT  --- 21 tcp 1040 [13a 1 0 800] ------- [0:0 1:0 30 1] [13 0] 1 0
s 3.163336022 _1_ AGT  --- 40 ack 40 [0 0 0 0] ------- [1:0 0:0 32 0] [13 0] 0 0
r 3.163336022 _1_ RTR  --- 40 ack 40 [0 0 0 0] ------- [1:0 0:0 32 0] [13 0] 0 0
s 3.163336022 _1_ RTR  --- 40 ack 40 [0 0 0 0] ------- [1:0 0:0 30 0] [13 0] 0 0
r 3.163625434 _0_ MAC  --- 0 ACK 38 [0 0 0 0] 
s 3.163715022 _1_ MAC  --- 0 RTS 44 [58e 0 1 0] 
r 3.164067434 _0_ MAC  --- 0 RTS 44 [58e 0 1 0] 
s 3.164077434 _0_ MAC  --- 0 CTS 38 [454 1 0 0] 
r 3.164381846 _1_ MAC  --- 0 CTS 38 [454 1 0 0] 
s 3.164391846 _1_ MAC  --- 40 ack 98 [13a 0 1 800] ------- [1:0 0:0 30 0] [13 0] 0 0
r 3.165176258 _0_ MAC  --- 40 ack 40 [13a 0 1 800] ------- [1:0 0:0 30 0] [13 0] 1 0
s 3.165186258 _0_ MAC  --- 0 ACK 38 [0 1 0 0] 
r 3.165201258 _0_ AGT  --- 40 ack 40 [13a 0 1 800] ------- [1:0 0:0 30 0] [13 0] 1 0
s 3.165201258 _0_ AGT  --- 41 tcp 1040 [0 0 0 0] ------- [0:0 1:0 32 0] [27 0] 0 0
r 3.165201258 _0_ RTR  --- 41 tcp 1040 [0 0 0 0] ------- [0:0 1:0 32 0] [27 0] 0 0
s 3.165201258 _0_ AGT  --- 42 tcp 1040 [0 0 0 0] ------- [0:0 1:0 32 0] [28 0] 0 0
r 3.165201258 _0_ RTR  --- 42 tcp 1040 [0 0 0 0] ------- [0:0 1:0 32 0] [28 0] 0 0
s 3.165201258 _0_ RTR  --- 41 tcp 1040 [0 0 0 0] ------- [0:0 1:0 30 1] [27 0] 0 0
s 3.165201258 _0_ RTR  --- 42 tcp 1040 [0 0 0 0] ------- [0:0 1:0 30 1] [28 0] 0 0
r 3.165490670 _1_ MAC  --- 0 ACK 38 [0 1 0 0] 
s 3.165800258 _0_ MAC  --- 0 RTS 44 [24ce 1 0 0] 
r 3.166152669 _1_ MAC  --- 0 RTS 44 [24ce 1 0 0] 
s 3.166162669 _1_ MAC  --- 0 CTS 38 [2394 0 0 0] 
r 3.166467081 _0_ MAC  --- 0 CTS 38 [2394 0 0 0] 
s 3.166477081 _0_ MAC  --- 22 tcp 1098 [13a 1 0 800] ------- [0:0 1:0 30 1] [14 0] 0 0
r 3.175261492 _1_ MAC  --- 22 tcp 1040 [13a 1 0 800] ------- [0:0 1:0 30 1] [14 0] 1 0
s 3.175271492 _1_ MAC  --- 0 ACK 38 [0 0 0 0] 
r 3.175286492 _1_ AGT  --- 22 tcp 1040 [13a 1 0 800] ------- [0:0 1:0 30 1] [14 0] 1 0
s 3.175286492 _1_ AGT  --- 43 ack 40 [0 0 0 0] ------- [1:0 0:0 32 0] [14 0] 0 0
r 3.175286492 _1_ RTR  --- 43 ack 40 [0 0 0 0] ------- [1:0 0:0 32 0] [14 0] 0 0
s 3.175286492 _1_ RTR  --- 43 ack 40 [0 0 0 0] ------- [1:0 0:0 30 0] [14 0] 0 0
r 3.175575900 _0_ MAC  --- 0 ACK 38 [0 0 0 0] 
s 3.175725492 _1_ MAC  --- 0 RTS 44 [58e 0 1 0] 
r 3.176077900 _0_ MAC  --- 0 RTS 44 [58e 0 1 0] 
s 3.176087900 _0_ MAC  --- 0 CTS 38 [454 1 0 0] 
r 3.176392308 _1_ MAC  --- 0 CTS 38 [454 1 0 0] 
s 3.176402308 _1_ MAC  --- 43 ack 98 [13a 0 1 800] ------- [1:0 0:0 30 0] [14 0] 0 0
r 3.177186716 _0_ MAC  --- 43 ack 40 [13a 0 1 800] ------- [1:0 0:0 30 0] [14 0] 1 0
s 3.177196716 _0_ MAC  --- 0 ACK 38 [0 1 0 0] 
r 3.177211716 _0_ AGT  --- 43 ack 40 [13a 0 1 800] ------- [1:0 0:0 30 0] [14 0] 1 0
s 3.177211716 _0_ AGT  --- 44 tcp 1040 [0 0 0 0] ------- [0:0 1:0 32 0] [29 0] 0 0
r 3.177211716 _0_ RTR  --- 44 tcp 1040 [0 0 0 0] ------- [0:0 1:0 32 0] [29 0] 0 0
s 3.177211716 _0_ AGT  --- 45 tcp 1040 [0 0 0 0] ------- [0:0 1:0 32 0] [30 0] 0 0
r 3.177211716 _0_ RTR  --- 45 tcp 1040 [0 0 0 0] ------- [0:0 1:0 32 0] [30 0] 0 0
s 3.177211716 _0_ RTR  --- 44 tcp 1040 [0 0 0 0] ------- [0:0 1:0 30 1] [29 0] 0 0
s 3.177211716 _0_ RTR  --- 45 tcp 1040 [0 0 0 0] ------- [0:0 1:0 30 1] [30 0] 0 0
r 3.177501124 _1_ MAC  --- 0 ACK 38 [0 1 0 0] 
s 3.177990716 _0_ MAC  --- 0 RTS 44 [24ce 1 0 0] 
r 3.178343123 _1_ MAC  --- 0 RTS 44 [24ce 1 0 0] 
s 3.178353123 _1_ MAC  --- 0 CTS 38 [2394 0 0 0] 
r 3.178657530 _0_ MAC  --- 0 CTS 38 [2394 0 0 0] 
s 3.178667530 _0_ MAC  --- 23 tcp 1098 [13a 1 0 800] ------- [0:0 1:0 30 1] [15 0] 0 0
r 3.187451938 _1_ MAC  --- 23 tcp 1040 [13a 1 0 800] ------- [0:0 1:0 30 1] [15 0] 1 0
s 3.187461938 _1_ MAC  --- 0 ACK 38 [0 0 0 0] 