+ 0.1 0 1 tcp 40 ------- 1 0.0 1.0 0 0
- 0.1 0 1 tcp 40 ------- 1 0.0 1.0 0 0
r 0.11032 0 1 tcp 40 ------- 1 0.0 1.0 0 0
+ 0.11032 1 0 ack 40 ------- 1 1.0 0.0 0 1
- 0.11032 1 0 ack 40 ------- 1 1.0 0.0 0 1
r 0.12064 1 0 ack 40 ------- 1 1.0 0.0 0 1
+ 0.12064 0 1 tcp 1040 ------- 1 0.0 1.0 1 2
- 0.12064 0 1 tcp 1040 ------- 1 0.0 1.0 1 2
+ 0.12064 0 1 tcp 1040 ------- 1 0.0 1.0 2 3
- 0.12896 0 1 tcp 1040 ------- 1 0.0 1.0 2 3
r 0.13896 0 1 tcp 1040 ------- 1 0.0 1.0 1 2
+ 0.13896 1 0 ack 40 ------- 1 1.0 0.0 1 4
- 0.13896 1 0 ack 40 ------- 1 1.0 0.0 1 4
r 0.14728 0 1 tcp 1040 ------- 1 0.0 1.0 2 3
+ 0.14728 1 0 ack 40 ------- 1 1.0 0.0 2 5
- 0.14728 1 0 ack 40 ------- 1 1.0 0.0 2 5
r 0.14928 1 0 ack 40 ------- 1 1.0 0.0 1 4
+ 0.14928 0 1 tcp 1040 ------- 1 0.0 1.0 3 6
- 0.14928 0 1 tcp 1040 ------- 1 0.0 1.0 3 6
+ 0.14928 0 1 tcp 1040 ------- 1 0.0 1.0 4 7
r 0.1576 1 0 ack 40 ------- 1 1.0 0.0 2 5
+ 0.1576 0 1 tcp 1040 ------- 1 0.0 1.0 5 8
+ 0.1576 0 1 tcp 1040 ------- 1 0.0 1.0 6 9
- 0.1576 0 1 tcp 1040 ------- 1 0.0 1.0 4 7
- 0.16592 0 1 tcp 1040 ------- 1 0.0 1.0 5 8
r 0.1676 0 1 tcp 1040 ------- 1 0.0 1.0 3 6
+ 0.1676 1 0 ack 40 ------- 1 1.0 0.0 3 10
- 0.1676 1 0 ack 40 ------- 1 1.0 0.0 3 10
- 0.17424 0 1 tcp 1040 ------- 1 0.0 1.0 6 9
r 0.17592 0 1 tcp 1040 ------- 1 0.0 1.0 4 7
+ 0.17592 1 0 ack 40 ------- 1 1.0 0.0 4 11
- 0.17592 1 0 ack 40 ------- 1 1.0 0.0 4 11
r 0.17792 1 0 ack 40 ------- 1 1.0 0.0 3 10
+ 0.17792 0 1 tcp 1040 ------- 1 0.0 1.0 7 12
+ 0.17792 0 1 tcp 1040 ------- 1 0.0 1.0 8 13
- 0.18256 0 1 tcp 1040 ------- 1 0.0 1.0 7 12
r 0.18424 0 1 tcp 1040 ------- 1 0.0 1.0 5 8
+ 0.18424 1 0 ack 40 ------- 1 1.0 0.0 5 14
- 0.18424 1 0 ack 40 ------- 1 1.0 0.0 5 14
r 0.18624 1 0 ack 40 ------- 1 1.0 0.0 4 11
+ 0.18624 0 1 tcp 1040 ------- 1 0.0 1.0 9 15
+ 0.18624 0 1 tcp 1040 ------- 1 0.0 1.0 10 16
- 0.19088 0 1 tcp 1040 ------- 1 0.0 1.0 8 13
r 0.19256 0 1 tcp 1040 ------- 1 0.0 1.0 6 9
+ 0.19256 1 0 ack 40 ------- 1 1.0 0.0 6 17
- 0.19256 1 0 ack 40 ------- 1 1.0 0.0 6 17
r 0.19456 1 0 ack 40 ------- 1 1.0 0.0 5 14
+ 0.19456 0 1 tcp 1040 ------- 1 0.0 1.0 11 18
+ 0.19456 0 1 tcp 1040 ------- 1 0.0 1.0 12 19
- 0.1992 0 1 tcp 1040 ------- 1 0.0 1.0 9 15
r 0.20088 0 1 tcp 1040 ------- 1 0.0 1.0 7 12
+ 0.20088 1 0 ack 40 ------- 1 1.0 0.0 7 20
- 0.20088 1 0 ack 40 ------- 1 1.0 0.0 7 20
r 0.20288 1 0 ack 40 ------- 1 1.0 0.0 6 17
+ 0.20288 0 1 tcp 1040 ------- 1 0.0 1.0 13 21
+ 0.20288 0 1 tcp 1040 ------- 1 0.0 1.0 14 22
- 0.20752 0 1 tcp 1040 ------- 1 0.0 1.0 10 16
r 0.2092 0 1 tcp 1040 ------- 1 0.0 1.0 8 13
+ 0.2092 1 0 ack 40 ------- 1 1.0 0.0 8 23
- 0.2092 1 0 ack 40 ------- 1 1.0 0.0 8 23
r 0.2112 1 0 ack 40 ------- 1 1.0 0.0 7 20
+ 0.2112 0 1 tcp 1040 ------- 1 0.0 1.0 15 24
+ 0.2112 0 1 tcp 1040 ------- 1 0.0 1.0 16 25
- 0.21584 0 1 tcp 1040 ------- 1 0.0 1.0 11 18
r 0.21752 0 1 tcp 1040 ------- 1 0.0 1.0 9 15
+ 0.21752 1 0 ack 40 ------- 1 1.0 0.0 9 26
- 0.21752 1 0 ack 40 ------- 1 1.0 0.0 9 26
r 0.21952 1 0 ack 40 ------- 1 1.0 0.0 8 23
+ 0.21952 0 1 tcp 1040 ------- 1 0.0 1.0 17 27
+ 0.21952 0 1 tcp 1040 ------- 1 0.0 1.0 18 28
- 0.22416 0 1 tcp 1040 ------- 1 0.0 1.0 12 19
r 0.22584 0 1 tcp 1040 ------- 1 0.0 1.0 10 16
+ 0.22584 1 0 ack 40 ------- 1 1.0 0.0 10 29
- 0.22584 1 0 ack 40 ------- 1 1.0 0.0 10 29
r 0.22784 1 0 ack 40 ------- 1 1.0 0.0 9 26
+ 0.22784 0 1 tcp 1040 ------- 1 0.0 1.0 19 30
+ 0.22784 0 1 tcp 1040 ------- 1 0.0 1.0 20 31
- 0.23248 0 1 tcp 1040 ------- 1 0.0 1.0 13 21
r 0.23416 0 1 tcp 1040 ------- 1 0.0 1.0 11 18
+ 0.23416 1 0 ack 40 ------- 1 1.0 0.0 11 32
- 0.23416 1 0 ack 40 ------- 1 1.0 0.0 11 32
r 0.23616 1 0 ack 40 ------- 1 1.0 0.0 10 29
+ 0.23616 0 1 tcp 1040 ------- 1 0.0 1.0 21 33
+ 0.23616 0 1 tcp 1040 ------- 1 0.0 1.0 22 34
- 0.2408 0 1 tcp 1040 ------- 1 0.0 1.0 14 22
r 0.24248 0 1 tcp 1040 ------- 1 0.0 1.0 12 19
+ 0.24248 1 0 ack 40 ------- 1 1.0 0.0 12 35
- 0.24248 1 0 ack 40 ------- 1 1.0 0.0 12 35
r 0.24448 1 0 ack 40 ------- 1 1.0 0.0 11 32
+ 0.24448 0 1 tcp 1040 ------- 1 0.0 1.0 23 36
+ 0.24448 0 1 tcp 1040 ------- 1 0.0 1.0 24 37
- 0.24912 0 1 tcp 1040 ------- 1 0.0 1.0 15 24
r 0.2508 0 1 tcp 1040 ------- 1 0.0 1.0 13 21
+ 0.2508 1 0 ack 40 ------- 1 1.0 0.0 13 38
- 0.2508 1 0 ack 40 ------- 1 1.0 0.0 13 38
r 0.2528 1 0 ack 40 ------- 1 1.0 0.0 12 35
+ 0.2528 0 1 tcp 1040 ------- 1 0.0 1.0 25 39
+ 0.2528 0 1 tcp 1040 ------- 1 0.0 1.0 26 40
- 0.25744 0 1 tcp 1040 ------- 1 0.0 1.0 16 25
r 0.25912 0 1 tcp 1040 ------- 1 0.0 1.0 14 22
+ 0.25912 1 0 ack 40 ------- 1 1.0 0.0 14 41
- 0.25912 1 0 ack 40 ------- 1 1.0 0.0 14 41
r 0.26112 1 0 ack 40 ------- 1 1.0 0.0 13 38
+ 0.26112 0 1 tcp 1040 ------- 1 0.0 1.0 27 42
+ 0.26112 0 1 tcp 1040 ------- 1 0.0 1.0 28 43
- 0.26576 0 1 tcp 1040 ------- 1 0.0 1.0 17 27
r 0.26744 0 1 tcp 1040 ------- 1 0.0 1.0 15 24
+ 0.26744 1 0 ack 40 ------- 1 1.0 0.0 15 44
- 0.26744 1 0 ack 40 ------- 1 1.0 0.0 15 44
r 0.26944 1 0 ack 40 ------- 1 1.0 0.0 14 41
+ 0.26944 0 1 tcp 1040 ------- 1 0.0 1.0 29 45
+ 0.26944 0 1 tcp 1040 ------- 1 0.0 1.0 30 46
- 0.27408 0 1 tcp 1040 ------- 1 0.0 1.0 18 28
r 0.27576 0 1 tcp 1040 ------- 1 0.0 1.0 16 25
+ 0.27576 1 0 ack 40 ------- 1 1.0 0.0 16 47
- 0.27576 1 0 ack 40 ------- 1 1.0 0.0 16 47
r 0.27776 1 0 ack 40 ------- 1 1.0 0.0 15 44
+ 0.27776 0 1 tcp 1040 ------- 1 0.0 1.0 31 48
+ 0.27776 0 1 tcp 1040 ------- 1 0.0 1.0 32 49
- 0.2824 0 1 tcp 1040 ------- 1 0.0 1.0 19 30
r 0.28408 0 1 tcp 1040 ------- 1 0.0 1.0 17 27
+ 0.28408 1 0 ack 40 ------- 1 1.0 0.0 17 50
- 0.28408 1 0 ack 40 ------- 1 1.0 0.0 17 50
r 0.28608 1 0 ack 40 ------- 1 1.0 0.0 16 47
+ 0.28608 0 1 tcp 1040 ------- 1 0.0 1.0 33 51
+ 0.28608 0 1 tcp 1040 ------- 1 0.0 1.0 34 52
- 0.29072 0 1 tcp 1040 ------- 1 0.0 1.0 20 31
r 0.2924 0 1 tcp 1040 ------- 1 0.0 1.0 18 28
+ 0.2924 1 0 ack 40 ------- 1 1.0 0.0 18 53
- 0.2924 1 0 ack 40 ------- 1 1.0 0.0 18 53
r 0.2944 1 0 ack 40 ------- 1 1.0 0.0 17 50
+ 0.2944 0 1 tcp 1040 ------- 1 0.0 1.0 35 54
+ 0.2944 0 1 tcp 1040 ------- 1 0.0 1.0 36 55
- 0.29904 0 1 tcp 1040 ------- 1 0.0 1.0 21 33
r 0.30072 0 1 tcp 1040 ------- 1 0.0 1.0 19 30
+ 0.30072 1 0 ack 40 ------- 1 1.0 0.0 19 56
- 0.30072 1 0 ack 40 ------- 1 1.0 0.0 19 56
r 0.30272 1 0 ack 40 ------- 1 1.0 0.0 18 53
+ 0.30272 0 1 tcp 1040 ------- 1 0.0 1.0 37 57
+ 0.30272 0 1 tcp 1040 ------- 1 0.0 1.0 38 58
- 0.30736 0 1 tcp 1040 ------- 1 0.0 1.0 22 34
r 0.30904 0 1 tcp 1040 ------- 1 0.0 1.0 20 31
+ 0.30904 1 0 ack 40 ------- 1 1.0 0.0 20 59
- 0.30904 1 0 ack 40 ------- 1 1.0 0.0 20 59
r 0.31104 1 0 ack 40 ------- 1 1.0 0.0 19 56
+ 0.31104 0 1 tcp 1040 ------- 1 0.0 1.0 39 60
- 0.31568 0 1 tcp 1040 ------- 1 0.0 1.0 23 36
r 0.31736 0 1 tcp 1040 ------- 1 0.0 1.0 21 33
+ 0.31736 1 0 ack 40 ------- 1 1.0 0.0 21 61
- 0.31736 1 0 ack 40 ------- 1 1.0 0.0 21 61
r 0.31936 1 0 ack 40 ------- 1 1.0 0.0 20 59
+ 0.31936 0 1 tcp 1040 ------- 1 0.0 1.0 40 62
- 0.324 0 1 tcp 1040 ------- 1 0.0 1.0 24 37
r 0.32568 0 1 tcp 1040 ------- 1 0.0 1.0 22 34
+ 0.32568 1 0 ack 40 ------- 1 1.0 0.0 22 63
- 0.32568 1 0 ack 40 ------- 1 1.0 0.0 22 63
r 0.32768 1 0 ack 40 ------- 1 1.0 0.0 21 61
+ 0.32768 0 1 tcp 1040 ------- 1 0.0 1.0 41 64
- 0.33232 0 1 tcp 1040 ------- 1 0.0 1.0 25 39
r 0.334 0 1 tcp 1040 ------- 1 0.0 1.0 23 36
+ 0.334 1 0 ack 40 ------- 1 1.0 0.0 23 65
- 0.334 1 0 ack 40 ------- 1 1.0 0.0 23 65
r 0.336 1 0 ack 40 ------- 1 1.0 0.0 22 63
+ 0.336 0 1 tcp 1040 ------- 1 0.0 1.0 42 66
- 0.34064 0 1 tcp 1040 ------- 1 0.0 1.0 26 40
r 0.34232 0 1 tcp 1040 ------- 1 0.0 1.0 24 37
+ 0.34232 1 0 ack 40 ------- 1 1.0 0.0 24 67
- 0.34232 1 0 ack 40 ------- 1 1.0 0.0 24 67
r 0.34432 1 0 ack 40 ------- 1 1.0 0.0 23 65
+ 0.34432 0 1 tcp 1040 ------- 1 0.0 1.0 43 68
- 0.34896 0 1 tcp 1040 ------- 1 0.0 1.0 27 42
r 0.35064 0 1 tcp 1040 ------- 1 0.0 1.0 25 39
+ 0.35064 1 0 ack 40 ------- 1 1.0 0.0 25 69
- 0.35064 1 0 ack 40 ------- 1 1.0 0.0 25 69
r 0.35264 1 0 ack 40 ------- 1 1.0 0.0 24 67
+ 0.35264 0 1 tcp 1040 ------- 1 0.0 1.0 44 70
- 0.35728 0 1 tcp 1040 ------- 1 0.0 1.0 28 43
r 0.35896 0 1 tcp 1040 ------- 1 0.0 1.0 26 40
+ 0.35896 1 0 ack 40 ------- 1 1.0 0.0 26 71
- 0.35896 1 0 ack 40 ------- 1 1.0 0.0 26 71
r 0.36096 1 0 ack 40 ------- 1 1.0 0.0 25 69
+ 0.36096 0 1 tcp 1040 ------- 1 0.0 1.0 45 72
- 0.3656 0 1 tcp 1040 ------- 1 0.0 1.0 29 45
r 0.36728 0 1 tcp 1040 ------- 1 0.0 1.0 27 42
+ 0.36728 1 0 ack 40 ------- 1 1.0 0.0 27 73
- 0.36728 1 0 ack 40 ------- 1 1.0 0.0 27 73
r 0.36928 1 0 ack 40 ------- 1 1.0 0.0 26 71
+ 0.36928 0 1 tcp 1040 ------- 1 0.0 1.0 46 74
- 0.37392 0 1 tcp 1040 ------- 1 0.0 1.0 30 46
r 0.3756 0 1 tcp 1040 ------- 1 0.0 1.0 28 43
+ 0.3756 1 0 ack 40 ------- 1 1.0 0.0 28 75
- 0.3756 1 0 ack 40 ------- 1 1.0 0.0 28 75
r 0.3776 1 0 ack 40 ------- 1 1.0 0.0 27 73
+ 0.3776 0 1 tcp 1040 ------- 1 0.0 1.0 47 76
- 0.38224 0 1 tcp 1040 ------- 1 0.0 1.0 31 48
r 0.38392 0 1 tcp 1040 ------- 1 0.0 1.0 29 45
+ 0.38392 1 0 ack 40 ------- 1 1.0 0.0 29 77
- 0.38392 1 0 ack 40 ------- 1 1.0 0.0 29 77
r 0.38592 1 0 ack 40 ------- 1 1.0 0.0 28 75
+ 0.38592 0 1 tcp 1040 ------- 1 0.0 1.0 48 78
- 0.39056 0 1 tcp 1040 ------- 1 0.0 1.0 32 49
r 0.39224 0 1 tcp 1040 ------- 1 0.0 1.0 30 46
+ 0.39224 1 0 ack 40 ------- 1 1.0 0.0 30 79
- 0.39224 1 0 ack 40 ------- 1 1.0 0.0 30 79
r 0.39424 1 0 ack 40 ------- 1 1.0 0.0 29 77
+ 0.39424 0 1 tcp 1040 ------- 1 0.0 1.0 49 80
- 0.39888 0 1 tcp 1040 ------- 1 0.0 1.0 33 51
r 0.40056 0 1 tcp 1040 ------- 1 0.0 1.0 31 48
+ 0.40056 1 0 ack 40 ------- 1 1.0 0.0 31 81
- 0.40056 1 0 ack 40 ------- 1 1.0 0.0 31 81
r 0.40256 1 0 ack 40 ------- 1 1.0 0.0 30 79
+ 0.40256 0 1 tcp 1040 ------- 1 0.0 1.0 50 82
- 0.4072 0 1 tcp 1040 ------- 1 0.0 1.0 34 52
r 0.40888 0 1 tcp 1040 ------- 1 0.0 1.0 32 49
+ 0.40888 1 0 ack 40 ------- 1 1.0 0.0 32 83
- 0.40888 1 0 ack 40 ------- 1 1.0 0.0 32 83
r 0.41088 1 0 ack 40 ------- 1 1.0 0.0 31 81
+ 0.41088 0 1 tcp 1040 ------- 1 0.0 1.0 51 84
- 0.41552 0 1 tcp 1040 ------- 1 0.0 1.0 35 54
r 0.4172 0 1 tcp 1040 ------- 1 0.0 1.0 33 51
+ 0.4172 1 0 ack 40 ------- 1 1.0 0.0 33 85
- 0.4172 1 0 ack 40 ------- 1 1.0 0.0 33 85
r 0.4192 1 0 ack 40 ------- 1 1.0 0.0 32 83
+ 0.4192 0 1 tcp 1040 ------- 1 0.0 1.0 52 86
- 0.42384 0 1 tcp 1040 ------- 1 0.0 1.0 36 55
r 0.42552 0 1 tcp 1040 ------- 1 0.0 1.0 34 52
+ 0.42552 1 0 ack 40 ------- 1 1.0 0.0 34 87
- 0.42552 1 0 ack 40 ------- 1 1.0 0.0 34 87
r 0.42752 1 0 ack 40 ------- 1 1.0 0.0 33 85
+ 0.42752 0 1 tcp 1040 ------- 1 0.0 1.0 53 88
- 0.43216 0 1 tcp 1040 ------- 1 0.0 1.0 37 57
r 0.43384 0 1 tcp 1040 ------- 1 0.0 1.0 35 54
+ 0.43384 1 0 ack 40 ------- 1 1.0 0.0 35 89
- 0.43384 1 0 ack 40 ------- 1 1.0 0.0 35 89
r 0.43584 1 0 ack 40 ------- 1 1.0 0.0 34 87
+ 0.43584 0 1 tcp 1040 ------- 1 0.0 1.0 54 90
- 0.44048 0 1 tcp 1040 ------- 1 0.0 1.0 38 58
r 0.44216 0 1 tcp 1040 ------- 1 0.0 1.0 36 55
+ 0.44216 1 0 ack 40 ------- 1 1.0 0.0 36 91
- 0.44216 1 0 ack 40 ------- 1 1.0 0.0 36 91
r 0.44416 1 0 ack 40 ------- 1 1.0 0.0 35 89
+ 0.44416 0 1 tcp 1040 ------- 1 0.0 1.0 55 92
- 0.4488 0 1 tcp 1040 ------- 1 0.0 1.0 39 60
r 0.45048 0 1 tcp 1040 ------- 1 0.0 1.0 37 57
+ 0.45048 1 0 ack 40 ------- 1 1.0 0.0 37 93
- 0.45048 1 0 ack 40 ------- 1 1.0 0.0 37 93
r 0.45248 1 0 ack 40 ------- 1 1.0 0.0 36 91
+ 0.45248 0 1 tcp 1040 ------- 1 0.0 1.0 56 94
- 0.45712 0 1 tcp 1040 ------- 1 0.0 1.0 40 62
r 0.4588 0 1 tcp 1040 ------- 1 0.0 1.0 38 58
+ 0.4588 1 0 ack 40 ------- 1 1.0 0.0 38 95
- 0.4588 1 0 ack 40 ------- 1 1.0 0.0 38 95
r 0.4608 1 0 ack 40 ------- 1 1.0 0.0 37 93
+ 0.4608 0 1 tcp 1040 ------- 1 0.0 1.0 57 96
- 0.46544 0 1 tcp 1040 ------- 1 0.0 1.0 41 64
r 0.46712 0 1 tcp 1040 ------- 1 0.0 1.0 39 60
+ 0.46712 1 0 ack 40 ------- 1 1.0 0.0 39 97
- 0.46712 1 0 ack 40 ------- 1 1.0 0.0 39 97
r 0.46912 1 0 ack 40 ------- 1 1.0 0.0 38 95
+ 0.46912 0 1 tcp 1040 ------- 1 0.0 1.0 58 98
- 0.47376 0 1 tcp 1040 ------- 1 0.0 1.0 42 66
r 0.47544 0 1 tcp 1040 ------- 1 0.0 1.0 40 62
+ 0.47544 1 0 ack 40 ------- 1 1.0 0.0 40 99
- 0.47544 1 0 ack 40 ------- 1 1.0 0.0 40 99
r 0.47744 1 0 ack 40 ------- 1 1.0 0.0 39 97
+ 0.47744 0 1 tcp 1040 ------- 1 0.0 1.0 59 100
- 0.48208 0 1 tcp 1040 ------- 1 0.0 1.0 43 68
r 0.48376 0 1 tcp 1040 ------- 1 0.0 1.0 41 64
+ 0.48376 1 0 ack 40 ------- 1 1.0 0.0 41 101
- 0.48376 1 0 ack 40 ------- 1 1.0 0.0 41 101
r 0.48576 1 0 ack 40 ------- 1 1.0 0.0 40 99
+ 0.48576 0 1 tcp 1040 ------- 1 0.0 1.0 60 102
- 0.4904 0 1 tcp 1040 ------- 1 0.0 1.0 44 70
r 0.49208 0 1 tcp 1040 ------- 1 0.0 1.0 42 66
+ 0.49208 1 0 ack 40 ------- 1 1.0 0.0 42 103
- 0.49208 1 0 ack 40 ------- 1 1.0 0.0 42 103
r 0.49408 1 0 ack 40 ------- 1 1.0 0.0 41 101
+ 0.49408 0 1 tcp 1040 ------- 1 0.0 1.0 61 104
- 0.49872 0 1 tcp 1040 ------- 1 0.0 1.0 45 72
r 0.5004 0 1 tcp 1040 ------- 1 0.0 1.0 43 68
+ 0.5004 1 0 ack 40 ------- 1 1.0 0.0 43 105
- 0.5004 1 0 ack 40 ------- 1 1.0 0.0 43 105
r 0.5024 1 0 ack 40 ------- 1 1.0 0.0 42 103
+ 0.5024 0 1 tcp 1040 ------- 1 0.0 1.0 62 106
- 0.50704 0 1 tcp 1040 ------- 1 0.0 1.0 46 74
r 0.50872 0 1 tcp 1040 ------- 1 0.0 1.0 44 70
+ 0.50872 1 0 ack 40 ------- 1 1.0 0.0 44 107
- 0.50872 1 0 ack 40 ------- 1 1.0 0.0 44 107
r 0.51072 1 0 ack 40 ------- 1 1.0 0.0 43 105
+ 0.51072 0 1 tcp 1040 ------- 1 0.0 1.0 63 108
- 0.51536 0 1 tcp 1040 ------- 1 0.0 1.0 47 76
r 0.51704 0 1 tcp 1040 ------- 1 0.0 1.0 45 72
+ 0.51704 1 0 ack 40 ------- 1 1.0 0.0 45 109
- 0.51704 1 0 ack 40 ------- 1 1.0 0.0 45 109
r 0.51904 1 0 ack 40 ------- 1 1.0 0.0 44 107
+ 0.51904 0 1 tcp 1040 ------- 1 0.0 1.0 64 110
- 0.52368 0 1 tcp 1040 ------- 1 0.0 1.0 48 78
r 0.52536 0 1 tcp 1040 ------- 1 0.0 1.0 46 74
+ 0.52536 1 0 ack 40 ------- 1 1.0 0.0 46 111
- 0.52536 1 0 ack 40 ------- 1 1.0 0.0 46 111
r 0.52736 1 0 ack 40 ------- 1 1.0 0.0 45 109
+ 0.52736 0 1 tcp 1040 ------- 1 0.0 1.0 65 112
- 0.532 0 1 tcp 1040 ------- 1 0.0 1.0 49 80
r 0.53368 0 1 tcp 1040 ------- 1 0.0 1.0 47 76
+ 0.53368 1 0 ack 40 ------- 1 1.0 0.0 47 113
- 0.53368 1 0 ack 40 ------- 1 1.0 0.0 47 113
r 0.53568 1 0 ack 40 ------- 1 1.0 0.0 46 111
+ 0.53568 0 1 tcp 1040 ------- 1 0.0 1.0 66 114
- 0.54032 0 1 tcp 1040 ------- 1 0.0 1.0 50 82
r 0.542 0 1 tcp 1040 ------- 1 0.0 1.0 48 78
+ 0.542 1 0 ack 40 ------- 1 1.0 0.0 48 115
- 0.542 1 0 ack 40 ------- 1 1.0 0.0 48 115
r 0.544 1 0 ack 40 ------- 1 1.0 0.0 47 113
+ 0.544 0 1 tcp 1040 ------- 1 0.0 1.0 67 116
- 0.54864 0 1 tcp 1040 ------- 1 0.0 1.0 51 84
r 0.55032 0 1 tcp 1040 ------- 1 0.0 1.0 49 80
+ 0.55032 1 0 ack 40 ------- 1 1.0 0.0 49 117
- 0.55032 1 0 ack 40 ------- 1 1.0 0.0 49 117
r 0.55232 1 0 ack 40 ------- 1 1.0 0.0 48 115
+ 0.55232 0 1 tcp 1040 ------- 1 0.0 1.0 68 118
- 0.55696 0 1 tcp 1040 ------- 1 0.0 1.0 52 86
r 0.55864 0 1 tcp 1040 ------- 1 0.0 1.0 50 82
+ 0.55864 1 0 ack 40 ------- 1 1.0 0.0 50 119
- 0.55864 1 0 ack 40 ------- 1 1.0 0.0 50 119
r 0.56064 1 0 ack 40 ------- 1 1.0 0.0 49 117
+ 0.56064 0 1 tcp 1040 ------- 1 0.0 1.0 69 120
- 0.56528 0 1 tcp 1040 ------- 1 0.0 1.0 53 88
r 0.56696 0 1 tcp 1040 ------- 1 0.0 1.0 51 84
+ 0.56696 1 0 ack 40 ------- 1 1.0 0.0 51 121
- 0.56696 1 0 ack 40 ------- 1 1.0 0.0 51 121
r 0.56896 1 0 ack 40 ------- 1 1.0 0.0 50 119
+ 0.56896 0 1 tcp 1040 ------- 1 0.0 1.0 70 122
- 0.5736 0 1 tcp 1040 ------- 1 0.0 1.0 54 90
r 0.57528 0 1 tcp 1040 ------- 1 0.0 1.0 52 86
+ 0.57528 1 0 ack 40 ------- 1 1.0 0.0 52 123
- 0.57528 1 0 ack 40 ------- 1 1.0 0.0 52 123
r 0.57728 1 0 ack 40 ------- 1 1.0 0.0 51 121
+ 0.57728 0 1 tcp 1040 ------- 1 0.0 1.0 71 124
- 0.58192 0 1 tcp 1040 ------- 1 0.0 1.0 55 92
r 0.5836 0 1 tcp 1040 ------- 1 0.0 1.0 53 88
+ 0.5836 1 0 ack 40 ------- 1 1.0 0.0 53 125
- 0.5836 1 0 ack 40 ------- 1 1.0 0.0 53 125
r 0.5856 1 0 ack 40 ------- 1 1.0 0.0 52 123
+ 0.5856 0 1 tcp 1040 ------- 1 0.0 1.0 72 126
- 0.59024 0 1 tcp 1040 ------- 1 0.0 1.0 56 94
r 0.59192 0 1 tcp 1040 ------- 1 0.0 1.0 54 90
+ 0.59192 1 0 ack 40 ------- 1 1.0 0.0 54 127
- 0.59192 1 0 ack 40 ------- 1 1.0 0.0 54 127
r 0.59392 1 0 ack 40 ------- 1 1.0 0.0 53 125
+ 0.59392 0 1 tcp 1040 ------- 1 0.0 1.0 73 128
- 0.59856 0 1 tcp 1040 ------- 1 0.0 1.0 57 96
r 0.60024 0 1 tcp 1040 ------- 1 0.0 1.0 55 92
+ 0.60024 1 0 ack 40 ------- 1 1.0 0.0 55 129
- 0.60024 1 0 ack 40 ------- 1 1.0 0.0 55 129
r 0.60224 1 0 ack 40 ------- 1 1.0 0.0 54 127
+ 0.60224 0 1 tcp 1040 ------- 1 0.0 1.0 74 130
- 0.60688 0 1 tcp 1040 ------- 1 0.0 1.0 58 98
r 0.60856 0 1 tcp 1040 ------- 1 0.0 1.0 56 94
+ 0.60856 1 0 ack 40 ------- 1 1.0 0.0 56 131
- 0.60856 1 0 ack 40 ------- 1 1.0 0.0 56 131
r 0.61056 1 0 ack 40 ------- 1 1.0 0.0 55 129
+ 0.61056 0 1 tcp 1040 ------- 1 0.0 1.0 75 132
- 0.6152 0 1 tcp 1040 ------- 1 0.0 1.0 59 100
r 0.61688 0 1 tcp 1040 ------- 1 0.0 1.0 57 96
+ 0.61688 1 0 ack 40 ------- 1 1.0 0.0 57 133
- 0.61688 1 0 ack 40 ------- 1 1.0 0.0 57 133
r 0.61888 1 0 ack 40 ------- 1 1.0 0.0 56 131
+ 0.61888 0 1 tcp 1040 ------- 1 0.0 1.0 76 134
- 0.62352 0 1 tcp 1040 ------- 1 0.0 1.0 60 102
r 0.6252 0 1 tcp 1040 ------- 1 0.0 1.0 58 98
+ 0.6252 1 0 ack 40 ------- 1 1.0 0.0 58 135
- 0.6252 1 0 ack 40 ------- 1 1.0 0.0 58 135
r 0.6272 1 0 ack 40 ------- 1 1.0 0.0 57 133
+ 0.6272 0 1 tcp 1040 ------- 1 0.0 1.0 77 136
- 0.63184 0 1 tcp 1040 ------- 1 0.0 1.0 61 104
r 0.63352 0 1 tcp 1040 ------- 1 0.0 1.0 59 100
+ 0.63352 1 0 ack 40 ------- 1 1.0 0.0 59 137
- 0.63352 1 0 ack 40 ------- 1 1.0 0.0 59 137
r 0.63552 1 0 ack 40 ------- 1 1.0 0.0 58 135
+ 0.63552 0 1 tcp 1040 ------- 1 0.0 1.0 78 138
- 0.64016 0 1 tcp 1040 ------- 1 0.0 1.0 62 106
r 0.64184 0 1 tcp 1040 ------- 1 0.0 1.0 60 102
+ 0.64184 1 0 ack 40 ------- 1 1.0 0.0 60 139
- 0.64184 1 0 ack 40 ------- 1 1.0 0.0 60 139
r 0.64384 1 0 ack 40 ------- 1 1.0 0.0 59 137
+ 0.64384 0 1 tcp 1040 ------- 1 0.0 1.0 79 140
- 0.64848 0 1 tcp 1040 ------- 1 0.0 1.0 63 108
r 0.65016 0 1 tcp 1040 ------- 1 0.0 1.0 61 104
+ 0.65016 1 0 ack 40 ------- 1 1.0 0.0 61 141
- 0.65016 1 0 ack 40 ------- 1 1.0 0.0 61 141
r 0.65216 1 0 ack 40 ------- 1 1.0 0.0 60 139
+ 0.65216 0 1 tcp 1040 ------- 1 0.0 1.0 80 142
- 0.6568 0 1 tcp 1040 ------- 1 0.0 1.0 64 110
r 0.65848 0 1 tcp 1040 ------- 1 0.0 1.0 62 106
+ 0.65848 1 0 ack 40 ------- 1 1.0 0.0 62 143
- 0.65848 1 0 ack 40 ------- 1 1.0 0.0 62 143
r 0.66048 1 0 ack 40 ------- 1 1.0 0.0 61 141
+ 0.66048 0 1 tcp 1040 ------- 1 0.0 1.0 81 144
- 0.66512 0 1 tcp 1040 ------- 1 0.0 1.0 65 112
r 0.6668 0 1 tcp 1040 ------- 1 0.0 1.0 63 108
+ 0.6668 1 0 ack 40 ------- 1 1.0 0.0 63 145
- 0.6668 1 0 ack 40 ------- 1 1.0 0.0 63 145
r 0.6688 1 0 ack 40 ------- 1 1.0 0.0 62 143
+ 0.6688 0 1 tcp 1040 ------- 1 0.0 1.0 82 146
- 0.67344 0 1 tcp 1040 ------- 1 0.0 1.0 66 114
r 0.67512 0 1 tcp 1040 ------- 1 0.0 1.0 64 110
+ 0.67512 1 0 ack 40 ------- 1 1.0 0.0 64 147
- 0.67512 1 0 ack 40 ------- 1 1.0 0.0 64 147
r 0.67712 1 0 ack 40 ------- 1 1.0 0.0 63 145
+ 0.67712 0 1 tcp 1040 ------- 1 0.0 1.0 83 148
- 0.68176 0 1 tcp 1040 ------- 1 0.0 1.0 67 116
r 0.68344 0 1 tcp 1040 ------- 1 0.0 1.0 65 112
+ 0.68344 1 0 ack 40 ------- 1 1.0 0.0 65 149
- 0.68344 1 0 ack 40 ------- 1 1.0 0.0 65 149
r 0.68544 1 0 ack 40 ------- 1 1.0 0.0 64 147
+ 0.68544 0 1 tcp 1040 ------- 1 0.0 1.0 84 150
- 0.69008 0 1 tcp 1040 ------- 1 0.0 1.0 68 118
r 0.69176 0 1 tcp 1040 ------- 1 0.0 1.0 66 114
+ 0.69176 1 0 ack 40 ------- 1 1.0 0.0 66 151
- 0.69176 1 0 ack 40 ------- 1 1.0 0.0 66 151
r 0.69376 1 0 ack 40 ------- 1 1.0 0.0 65 149
+ 0.69376 0 1 tcp 1040 ------- 1 0.0 1.0 85 152
- 0.6984 0 1 tcp 1040 ------- 1 0.0 1.0 69 120
r 0.70008 0 1 tcp 1040 ------- 1 0.0 1.0 67 116
+ 0.70008 1 0 ack 40 ------- 1 1.0 0.0 67 153
- 0.70008 1 0 ack 40 ------- 1 1.0 0.0 67 153
r 0.70208 1 0 ack 40 ------- 1 1.0 0.0 66 151
+ 0.70208 0 1 tcp 1040 ------- 1 0.0 1.0 86 154
- 0.70672 0 1 tcp 1040 ------- 1 0.0 1.0 70 122
r 0.7084 0 1 tcp 1040 ------- 1 0.0 1.0 68 118
+ 0.7084 1 0 ack 40 ------- 1 1.0 0.0 68 155
- 0.7084 1 0 ack 40 ------- 1 1.0 0.0 68 155
r 0.7104 1 0 ack 40 ------- 1 1.0 0.0 67 153
+ 0.7104 0 1 tcp 1040 ------- 1 0.0 1.0 87 156
- 0.71504 0 1 tcp 1040 ------- 1 0.0 1.0 71 124
r 0.71672 0 1 tcp 1040 ------- 1 0.0 1.0 69 120
+ 0.71672 1 0 ack 40 ------- 1 1.0 0.0 69 157
- 0.71672 1 0 ack 40 ------- 1 1.0 0.0 69 157
r 0.71872 1 0 ack 40 ------- 1 1.0 0.0 68 155
+ 0.71872 0 1 tcp 1040 ------- 1 0.0 1.0 88 158
- 0.72336 0 1 tcp 1040 ------- 1 0.0 1.0 72 126
r 0.72504 0 1 tcp 1040 ------- 1 0.0 1.0 70 122
+ 0.72504 1 0 ack 40 ------- 1 1.0 0.0 70 159
- 0.72504 1 0 ack 40 ------- 1 1.0 0.0 70 159
r 0.72704 1 0 ack 40 ------- 1 1.0 0.0 69 157
+ 0.72704 0 1 tcp 1040 ------- 1 0.0 1.0 89 160
- 0.73168 0 1 tcp 1040 ------- 1 0.0 1.0 73 128
r 0.73336 0 1 tcp 1040 ------- 1 0.0 1.0 71 124
+ 0.73336 1 0 ack 40 ------- 1 1.0 0.0 71 161
- 0.73336 1 0 ack 40 ------- 1 1.0 0.0 71 161
r 0.73536 1 0 ack 40 ------- 1 1.0 0.0 70 159
+ 0.73536 0 1 tcp 1040 ------- 1 0.0 1.0 90 162
- 0.74 0 1 tcp 1040 ------- 1 0.0 1.0 74 130
r 0.74168 0 1 tcp 1040 ------- 1 0.0 1.0 72 126
+ 0.74168 1 0 ack 40 ------- 1 1.0 0.0 72 163
- 0.74168 1 0 ack 40 ------- 1 1.0 0.0 72 163
r 0.74368 1 0 ack 40 ------- 1 1.0 0.0 71 161
+ 0.74368 0 1 tcp 1040 ------- 1 0.0 1.0 91 164
- 0.74832 0 1 tcp 1040 ------- 1 0.0 1.0 75 132
r 0.75 0 1 tcp 1040 ------- 1 0.0 1.0 73 128
+ 0.75 1 0 ack 40 ------- 1 1.0 0.0 73 165
- 0.75 1 0 ack 40 ------- 1 1.0 0.0 73 165
r 0.752 1 0 ack 40 ------- 1 1.0 0.0 72 163
+ 0.752 0 1 tcp 1040 ------- 1 0.0 1.0 92 166
- 0.75664 0 1 tcp 1040 ------- 1 0.0 1.0 76 134
r 0.75832 0 1 tcp 1040 ------- 1 0.0 1.0 74 130
+ 0.75832 1 0 ack 40 ------- 1 1.0 0.0 74 167
- 0.75832 1 0 ack 40 ------- 1 1.0 0.0 74 167
r 0.76032 1 0 ack 40 ------- 1 1.0 0.0 73 165
+ 0.76032 0 1 tcp 1040 ------- 1 0.0 1.0 93 168
- 0.76496 0 1 tcp 1040 ------- 1 0.0 1.0 77 136
r 0.76664 0 1 tcp 1040 ------- 1 0.0 1.0 75 132
+ 0.76664 1 0 ack 40 ------- 1 1.0 0.0 75 169
- 0.76664 1 0 ack 40 ------- 1 1.0 0.0 75 169
r 0.76864 1 0 ack 40 ------- 1 1.0 0.0 74 167
+ 0.76864 0 1 tcp 1040 ------- 1 0.0 1.0 94 170
- 0.77328 0 1 tcp 1040 ------- 1 0.0 1.0 78 138
r 0.77496 0 1 tcp 1040 ------- 1 0.0 1.0 76 134
+ 0.77496 1 0 ack 40 ------- 1 1.0 0.0 76 171
- 0.77496 1 0 ack 40 ------- 1 1.0 0.0 76 171
r 0.77696 1 0 ack 40 ------- 1 1.0 0.0 75 169
+ 0.77696 0 1 tcp 1040 ------- 1 0.0 1.0 95 172
- 0.7816 0 1 tcp 1040 ------- 1 0.0 1.0 79 140
r 0.78328 0 1 tcp 1040 ------- 1 0.0 1.0 77 136
+ 0.78328 1 0 ack 40 ------- 1 1.0 0.0 77 173
- 0.78328 1 0 ack 40 ------- 1 1.0 0.0 77 173
r 0.78528 1 0 ack 40 ------- 1 1.0 0.0 76 171
+ 0.78528 0 1 tcp 1040 ------- 1 0.0 1.0 96 174
- 0.78992 0 1 tcp 1040 ------- 1 0.0 1.0 80 142
r 0.7916 0 1 tcp 1040 ------- 1 0.0 1.0 78 138
+ 0.7916 1 0 ack 40 ------- 1 1.0 0.0 78 175
- 0.7916 1 0 ack 40 ------- 1 1.0 0.0 78 175
r 0.7936 1 0 ack 40 ------- 1 1.0 0.0 77 173
+ 0.7936 0 1 tcp 1040 ------- 1 0.0 1.0 97 176
- 0.79824 0 1 tcp 1040 ------- 1 0.0 1.0 81 144
r 0.79992 0 1 tcp 1040 ------- 1 0.0 1.0 79 140
+ 0.79992 1 0 ack 40 ------- 1 1.0 0.0 79 177
- 0.79992 1 0 ack 40 ------- 1 1.0 0.0 79 177
r 0.80192 1 0 ack 40 ------- 1 1.0 0.0 78 175
+ 0.80192 0 1 tcp 1040 ------- 1 0.0 1.0 98 178
- 0.80656 0 1 tcp 1040 ------- 1 0.0 1.0 82 146
r 0.80824 0 1 tcp 1040 ------- 1 0.0 1.0 80 142
+ 0.80824 1 0 ack 40 ------- 1 1.0 0.0 80 179
- 0.80824 1 0 ack 40 ------- 1 1.0 0.0 80 179
r 0.81024 1 0 ack 40 ------- 1 1.0 0.0 79 177
+ 0.81024 0 1 tcp 1040 ------- 1 0.0 1.0 99 180
- 0.81488 0 1 tcp 1040 ------- 1 0.0 1.0 83 148
r 0.81656 0 1 tcp 1040 ------- 1 0.0 1.0 81 144
+ 0.81656 1 0 ack 40 ------- 1 1.0 0.0 81 181
- 0.81656 1 0 ack 40 ------- 1 1.0 0.0 81 181
r 0.81856 1 0 ack 40 ------- 1 1.0 0.0 80 179
+ 0.81856 0 1 tcp 1040 ------- 1 0.0 1.0 100 182
- 0.8232 0 1 tcp 1040 ------- 1 0.0 1.0 84 150
r 0.82488 0 1 tcp 1040 ------- 1 0.0 1.0 82 146
+ 0.82488 1 0 ack 40 ------- 1 1.0 0.0 82 183
- 0.82488 1 0 ack 40 ------- 1 1.0 0.0 82 183
r 0.82688 1 0 ack 40 ------- 1 1.0 0.0 81 181
+ 0.82688 0 1 tcp 1040 ------- 1 0.0 1.0 101 184
- 0.83152 0 1 tcp 1040 ------- 1 0.0 1.0 85 152
r 0.8332 0 1 tcp 1040 ------- 1 0.0 1.0 83 148
+ 0.8332 1 0 ack 40 ------- 1 1.0 0.0 83 185
- 0.8332 1 0 ack 40 ------- 1 1.0 0.0 83 185
r 0.8352 1 0 ack 40 ------- 1 1.0 0.0 82 183
+ 0.8352 0 1 tcp 1040 ------- 1 0.0 1.0 102 186
- 0.83984 0 1 tcp 1040 ------- 1 0.0 1.0 86 154
r 0.84152 0 1 tcp 1040 ------- 1 0.0 1.0 84 150
+ 0.84152 1 0 ack 40 ------- 1 1.0 0.0 84 187
- 0.84152 1 0 ack 40 ------- 1 1.0 0.0 84 187
r 0.84352 1 0 ack 40 ------- 1 1.0 0.0 83 185
+ 0.84352 0 1 tcp 1040 ------- 1 0.0 1.0 103 188
- 0.84816 0 1 tcp 1040 ------- 1 0.0 1.0 87 156
r 0.84984 0 1 tcp 1040 ------- 1 0.0 1.0 85 152
+ 0.84984 1 0 ack 40 ------- 1 1.0 0.0 85 189
- 0.84984 1 0 ack 40 ------- 1 1.0 0.0 85 189
r 0.85184 1 0 ack 40 ------- 1 1.0 0.0 84 187
+ 0.85184 0 1 tcp 1040 ------- 1 0.0 1.0 104 190
- 0.85648 0 1 tcp 1040 ------- 1 0.0 1.0 88 158
r 0.85816 0 1 tcp 1040 ------- 1 0.0 1.0 86 154
+ 0.85816 1 0 ack 40 ------- 1 1.0 0.0 86 191
- 0.85816 1 0 ack 40 ------- 1 1.0 0.0 86 191
r 0.86016 1 0 ack 40 ------- 1 1.0 0.0 85 189
+ 0.86016 0 1 tcp 1040 ------- 1 0.0 1.0 105 192
- 0.8648 0 1 tcp 1040 ------- 1 0.0 1.0 89 160
r 0.86648 0 1 tcp 1040 ------- 1 0.0 1.0 87 156
+ 0.86648 1 0 ack 40 ------- 1 1.0 0.0 87 193
- 0.86648 1 0 ack 40 ------- 1 1.0 0.0 87 193
r 0.86848 1 0 ack 40 ------- 1 1.0 0.0 86 191
+ 0.86848 0 1 tcp 1040 ------- 1 0.0 1.0 106 194
- 0.87312 0 1 tcp 1040 ------- 1 0.0 1.0 90 162
r 0.8748 0 1 tcp 1040 ------- 1 0.0 1.0 88 158
+ 0.8748 1 0 ack 40 ------- 1 1.0 0.0 88 195
- 0.8748 1 0 ack 40 ------- 1 1.0 0.0 88 195
r 0.8768 1 0 ack 40 ------- 1 1.0 0.0 87 193
+ 0.8768 0 1 tcp 1040 ------- 1 0.0 1.0 107 196
- 0.88144 0 1 tcp 1040 ------- 1 0.0 1.0 91 164
r 0.88312 0 1 tcp 1040 ------- 1 0.0 1.0 89 160
+ 0.88312 1 0 ack 40 ------- 1 1.0 0.0 89 197
- 0.88312 1 0 ack 40 ------- 1 1.0 0.0 89 197
r 0.88512 1 0 ack 40 ------- 1 1.0 0.0 88 195
+ 0.88512 0 1 tcp 1040 ------- 1 0.0 1.0 108 198
- 0.88976 0 1 tcp 1040 ------- 1 0.0 1.0 92 166
r 0.89144 0 1 tcp 1040 ------- 1 0.0 1.0 90 162
+ 0.89144 1 0 ack 40 ------- 1 1.0 0.0 90 199
- 0.89144 1 0 ack 40 ------- 1 1.0 0.0 90 199
r 0.89344 1 0 ack 40 ------- 1 1.0 0.0 89 197
+ 0.89344 0 1 tcp 1040 ------- 1 0.0 1.0 109 200
- 0.89808 0 1 tcp 1040 ------- 1 0.0 1.0 93 168
r 0.89976 0 1 tcp 1040 ------- 1 0.0 1.0 91 164
+ 0.89976 1 0 ack 40 ------- 1 1.0 0.0 91 201
- 0.89976 1 0 ack 40 ------- 1 1.0 0.0 91 201
r 0.90176 1 0 ack 40 ------- 1 1.0 0.0 90 199
+ 0.90176 0 1 tcp 1040 ------- 1 0.0 1.0 110 202
- 0.9064 0 1 tcp 1040 ------- 1 0.0 1.0 94 170
r 0.90808 0 1 tcp 1040 ------- 1 0.0 1.0 92 166
+ 0.90808 1 0 ack 40 ------- 1 1.0 0.0 92 203
- 0.90808 1 0 ack 40 ------- 1 1.0 0.0 92 203
r 0.91008 1 0 ack 40 ------- 1 1.0 0.0 91 201
+ 0.91008 0 1 tcp 1040 ------- 1 0.0 1.0 111 204
- 0.91472 0 1 tcp 1040 ------- 1 0.0 1.0 95 172
r 0.9164 0 1 tcp 1040 ------- 1 0.0 1.0 93 168
+ 0.9164 1 0 ack 40 ------- 1 1.0 0.0 93 205
- 0.9164 1 0 ack 40 ------- 1 1.0 0.0 93 205
r 0.9184 1 0 ack 40 ------- 1 1.0 0.0 92 203
+ 0.9184 0 1 tcp 1040 ------- 1 0.0 1.0 112 206
- 0.92304 0 1 tcp 1040 ------- 1 0.0 1.0 96 174
r 0.92472 0 1 tcp 1040 ------- 1 0.0 1.0 94 170
+ 0.92472 1 0 ack 40 ------- 1 1.0 0.0 94 207
- 0.92472 1 0 ack 40 ------- 1 1.0 0.0 94 207
r 0.92672 1 0 ack 40 ------- 1 1.0 0.0 93 205
+ 0.92672 0 1 tcp 1040 ------- 1 0.0 1.0 113 208
- 0.93136 0 1 tcp 1040 ------- 1 0.0 1.0 97 176
r 0.93304 0 1 tcp 1040 ------- 1 0.0 1.0 95 172
+ 0.93304 1 0 ack 40 ------- 1 1.0 0.0 95 209
- 0.93304 1 0 ack 40 ------- 1 1.0 0.0 95 209
r 0.93504 1 0 ack 40 ------- 1 1.0 0.0 94 207
+ 0.93504 0 1 tcp 1040 ------- 1 0.0 1.0 114 210
- 0.93968 0 1 tcp 1040 ------- 1 0.0 1.0 98 178
r 0.94136 0 1 tcp 1040 ------- 1 0.0 1.0 96 174
+ 0.94136 1 0 ack 40 ------- 1 1.0 0.0 96 211
- 0.94136 1 0 ack 40 ------- 1 1.0 0.0 96 211
r 0.94336 1 0 ack 40 ------- 1 1.0 0.0 95 209
+ 0.94336 0 1 tcp 1040 ------- 1 0.0 1.0 115 212
- 0.948 0 1 tcp 1040 ------- 1 0.0 1.0 99 180
r 0.94968 0 1 tcp 1040 ------- 1 0.0 1.0 97 176
+ 0.94968 1 0 ack 40 ------- 1 1.0 0.0 97 213
- 0.94968 1 0 ack 40 ------- 1 1.0 0.0 97 213
r 0.95168 1 0 ack 40 ------- 1 1.0 0.0 96 211
+ 0.95168 0 1 tcp 1040 ------- 1 0.0 1.0 116 214
- 0.95632 0 1 tcp 1040 ------- 1 0.0 1.0 100 182
r 0.958 0 1 tcp 1040 ------- 1 0.0 1.0 98 178
+ 0.958 1 0 ack 40 ------- 1 1.0 0.0 98 215
- 0.958 1 0 ack 40 ------- 1 1.0 0.0 98 215
r 0.96 1 0 ack 40 ------- 1 1.0 0.0 97 213
+ 0.96 0 1 tcp 1040 ------- 1 0.0 1.0 117 216
- 0.96464 0 1 tcp 1040 ------- 1 0.0 1.0 101 184
r 0.96632 0 1 tcp 1040 ------- 1 0.0 1.0 99 180
+ 0.96632 1 0 ack 40 ------- 1 1.0 0.0 99 217
- 0.96632 1 0 ack 40 ------- 1 1.0 0.0 99 217
r 0.96832 1 0 ack 40 ------- 1 1.0 0.0 98 215
+ 0.96832 0 1 tcp 1040 ------- 1 0.0 1.0 118 218
- 0.97296 0 1 tcp 1040 ------- 1 0.0 1.0 102 186
r 0.97464 0 1 tcp 1040 ------- 1 0.0 1.0 100 182
+ 0.97464 1 0 ack 40 ------- 1 1.0 0.0 100 219
- 0.97464 1 0 ack 40 ------- 1 1.0 0.0 100 219
r 0.97664 1 0 ack 40 ------- 1 1.0 0.0 99 217
+ 0.97664 0 1 tcp 1040 ------- 1 0.0 1.0 119 220
- 0.98128 0 1 tcp 1040 ------- 1 0.0 1.0 103 188
r 0.98296 0 1 tcp 1040 ------- 1 0.0 1.0 101 184
+ 0.98296 1 0 ack 40 ------- 1 1.0 0.0 101 221
- 0.98296 1 0 ack 40 ------- 1 1.0 0.0 101 221
r 0.98496 1 0 ack 40 ------- 1 1.0 0.0 100 219
+ 0.98496 0 1 tcp 1040 ------- 1 0.0 1.0 120 222
- 0.9896 0 1 tcp 1040 ------- 1 0.0 1.0 104 190
r 0.99128 0 1 tcp 1040 ------- 1 0.0 1.0 102 186
+ 0.99128 1 0 ack 40 ------- 1 1.0 0.0 102 223
- 0.99128 1 0 ack 40 ------- 1 1.0 0.0 102 223
r 0.99328 1 0 ack 40 ------- 1 1.0 0.0 101 221
+ 0.99328 0 1 tcp 1040 ------- 1 0.0 1.0 121 224
- 0.99792 0 1 tcp 1040 ------- 1 0.0 1.0 105 192
r 0.9996 0 1 tcp 1040 ------- 1 0.0 1.0 103 188
+ 0.9996 1 0 ack 40 ------- 1 1.0 0.0 103 225
- 0.9996 1 0 ack 40 ------- 1 1.0 0.0 103 225
+ 1 2 3 tcp 40 ------- 2 2.0 3.0 0 226
- 1 2 3 tcp 40 ------- 2 2.0 3.0 0 226
r 1.0016 1 0 ack 40 ------- 1 1.0 0.0 102 223
+ 1.0016 0 1 tcp 1040 ------- 1 0.0 1.0 122 227
- 1.00624 0 1 tcp 1040 ------- 1 0.0 1.0 106 194
r 1.00792 0 1 tcp 1040 ------- 1 0.0 1.0 104 190
+ 1.00792 1 0 ack 40 ------- 1 1.0 0.0 104 228