+ 0.1 0 4 cbr 1000 ------- 2 0.0 3.0 0 0
- 0.1 0 4 cbr 1000 ------- 2 0.0 3.0 0 0
+ 0.108 0 4 cbr 1000 ------- 2 0.0 3.0 1 1
- 0.108 0 4 cbr 1000 ------- 2 0.0 3.0 1 1
r 0.114 0 4 cbr 1000 ------- 2 0.0 3.0 0 0
+ 0.114 4 3 cbr 1000 ------- 2 0.0 3.0 0 0
- 0.114 4 3 cbr 1000 ------- 2 0.0 3.0 0 0
+ 0.116 0 4 cbr 1000 ------- 2 0.0 3.0 2 2
- 0.116 0 4 cbr 1000 ------- 2 0.0 3.0 2 2
r 0.122 0 4 cbr 1000 ------- 2 0.0 3.0 1 1
+ 0.122 4 3 cbr 1000 ------- 2 0.0 3.0 1 1
- 0.122 4 3 cbr 1000 ------- 2 0.0 3.0 1 1
+ 0.124 0 4 cbr 1000 ------- 2 0.0 3.0 3 3
- 0.124 0 4 cbr 1000 ------- 2 0.0 3.0 3 3
r 0.13 0 4 cbr 1000 ------- 2 0.0 3.0 2 2
+ 0.13 4 3 cbr 1000 ------- 2 0.0 3.0 2 2
- 0.13 4 3 cbr 1000 ------- 2 0.0 3.0 2 2
+ 0.132 0 4 cbr 1000 ------- 2 0.0 3.0 4 4
- 0.132 0 4 cbr 1000 ------- 2 0.0 3.0 4 4
r 0.138 0 4 cbr 1000 ------- 2 0.0 3.0 3 3
+ 0.138 4 3 cbr 1000 ------- 2 0.0 3.0 3 3
- 0.138 4 3 cbr 1000 ------- 2 0.0 3.0 3 3
r 0.138706 4 3 cbr 1000 ------- 2 0.0 3.0 0 0
+ 0.14 0 4 cbr 1000 ------- 2 0.0 3.0 5 5
- 0.14 0 4 cbr 1000 ------- 2 0.0 3.0 5 5
r 0.146 0 4 cbr 1000 ------- 2 0.0 3.0 4 4
+ 0.146 4 3 cbr 1000 ------- 2 0.0 3.0 4 4
- 0.146 4 3 cbr 1000 ------- 2 0.0 3.0 4 4
r 0.146706 4 3 cbr 1000 ------- 2 0.0 3.0 1 1
+ 0.148 0 4 cbr 1000 ------- 2 0.0 3.0 6 6
- 0.148 0 4 cbr 1000 ------- 2 0.0 3.0 6 6
r 0.154 0 4 cbr 1000 ------- 2 0.0 3.0 5 5
+ 0.154 4 3 cbr 1000 ------- 2 0.0 3.0 5 5
- 0.154 4 3 cbr 1000 ------- 2 0.0 3.0 5 5
r 0.154706 4 3 cbr 1000 ------- 2 0.0 3.0 2 2
+ 0.156 0 4 cbr 1000 ------- 2 0.0 3.0 7 7
- 0.156 0 4 cbr 1000 ------- 2 0.0 3.0 7 7
r 0.162 0 4 cbr 1000 ------- 2 0.0 3.0 6 6
+ 0.162 4 3 cbr 1000 ------- 2 0.0 3.0 6 6
- 0.162 4 3 cbr 1000 ------- 2 0.0 3.0 6 6
r 0.162706 4 3 cbr 1000 ------- 2 0.0 3.0 3 3
+ 0.164 0 4 cbr 1000 ------- 2 0.0 3.0 8 8
- 0.164 0 4 cbr 1000 ------- 2 0.0 3.0 8 8
r 0.17 0 4 cbr 1000 ------- 2 0.0 3.0 7 7
+ 0.17 4 3 cbr 1000 ------- 2 0.0 3.0 7 7
- 0.17 4 3 cbr 1000 ------- 2 0.0 3.0 7 7
r 0.170706 4 3 cbr 1000 ------- 2 0.0 3.0 4 4
+ 0.172 0 4 cbr 1000 ------- 2 0.0 3.0 9 9
- 0.172 0 4 cbr 1000 ------- 2 0.0 3.0 9 9
r 0.178 0 4 cbr 1000 ------- 2 0.0 3.0 8 8
+ 0.178 4 3 cbr 1000 ------- 2 0.0 3.0 8 8
- 0.178 4 3 cbr 1000 ------- 2 0.0 3.0 8 8
r 0.178706 4 3 cbr 1000 ------- 2 0.0 3.0 5 5
+ 0.18 0 4 cbr 1000 ------- 2 0.0 3.0 10 10
- 0.18 0 4 cbr 1000 ------- 2 0.0 3.0 10 10
r 0.186 0 4 cbr 1000 ------- 2 0.0 3.0 9 9
+ 0.186 4 3 cbr 1000 ------- 2 0.0 3.0 9 9
- 0.186 4 3 cbr 1000 ------- 2 0.0 3.0 9 9
r 0.186706 4 3 cbr 1000 ------- 2 0.0 3.0 6 6
+ 0.188 0 4 cbr 1000 ------- 2 0.0 3.0 11 11
- 0.188 0 4 cbr 1000 ------- 2 0.0 3.0 11 11
r 0.194 0 4 cbr 1000 ------- 2 0.0 3.0 10 10
+ 0.194 4 3 cbr 1000 ------- 2 0.0 3.0 10 10
- 0.194 4 3 cbr 1000 ------- 2 0.0 3.0 10 10
r 0.194706 4 3 cbr 1000 ------- 2 0.0 3.0 7 7
+ 0.196 0 4 cbr 1000 ------- 2 0.0 3.0 12 12
- 0.196 0 4 cbr 1000 ------- 2 0.0 3.0 12 12
r 0.202 0 4 cbr 1000 ------- 2 0.0 3.0 11 11
+ 0.202 4 3 cbr 1000 ------- 2 0.0 3.0 11 11
- 0.202 4 3 cbr 1000 ------- 2 0.0 3.0 11 11
r 0.202706 4 3 cbr 1000 ------- 2 0.0 3.0 8 8
+ 0.204 0 4 cbr 1000 ------- 2 0.0 3.0 13 13
- 0.204 0 4 cbr 1000 ------- 2 0.0 3.0 13 13
r 0.21 0 4 cbr 1000 ------- 2 0.0 3.0 12 12
+ 0.21 4 3 cbr 1000 ------- 2 0.0 3.0 12 12
- 0.21 4 3 cbr 1000 ------- 2 0.0 3.0 12 12
r 0.210706 4 3 cbr 1000 ------- 2 0.0 3.0 9 9
+ 0.212 0 4 cbr 1000 ------- 2 0.0 3.0 14 14
- 0.212 0 4 cbr 1000 ------- 2 0.0 3.0 14 14
r 0.218 0 4 cbr 1000 ------- 2 0.0 3.0 13 13
+ 0.218 4 3 cbr 1000 ------- 2 0.0 3.0 13 13
- 0.218 4 3 cbr 1000 ------- 2 0.0 3.0 13 13
r 0.218706 4 3 cbr 1000 ------- 2 0.0 3.0 10 10
+ 0.22 0 4 cbr 1000 ------- 2 0.0 3.0 15 15
- 0.22 0 4 cbr 1000 ------- 2 0.0 3.0 15 15
r 0.226 0 4 cbr 1000 ------- 2 0.0 3.0 14 14
+ 0.226 4 3 cbr 1000 ------- 2 0.0 3.0 14 14
- 0.226 4 3 cbr 1000 ------- 2 0.0 3.0 14 14
r 0.226706 4 3 cbr 1000 ------- 2 0.0 3.0 11 11
+ 0.228 0 4 cbr 1000 ------- 2 0.0 3.0 16 16
- 0.228 0 4 cbr 1000 ------- 2 0.0 3.0 16 16
r 0.234 0 4 cbr 1000 ------- 2 0.0 3.0 15 15
+ 0.234 4 3 cbr 1000 ------- 2 0.0 3.0 15 15
- 0.234 4 3 cbr 1000 ------- 2 0.0 3.0 15 15
r 0.234706 4 3 cbr 1000 ------- 2 0.0 3.0 12 12
+ 0.236 0 4 cbr 1000 ------- 2 0.0 3.0 17 17
- 0.236 0 4 cbr 1000 ------- 2 0.0 3.0 17 17
r 0.242 0 4 cbr 1000 ------- 2 0.0 3.0 16 16
+ 0.242 4 3 cbr 1000 ------- 2 0.0 3.0 16 16
- 0.242 4 3 cbr 1000 ------- 2 0.0 3.0 16 16
r 0.242706 4 3 cbr 1000 ------- 2 0.0 3.0 13 13
+ 0.244 0 4 cbr 1000 ------- 2 0.0 3.0 18 18
- 0.244 0 4 cbr 1000 ------- 2 0.0 3.0 18 18
r 0.25 0 4 cbr 1000 ------- 2 0.0 3.0 17 17
+ 0.25 4 3 cbr 1000 ------- 2 0.0 3.0 17 17
- 0.25 4 3 cbr 1000 ------- 2 0.0 3.0 17 17
r 0.250706 4 3 cbr 1000 ------- 2 0.0 3.0 14 14
+ 0.252 0 4 cbr 1000 ------- 2 0.0 3.0 19 19
- 0.252 0 4 cbr 1000 ------- 2 0.0 3.0 19 19
r 0.258 0 4 cbr 1000 ------- 2 0.0 3.0 18 18
+ 0.258 4 3 cbr 1000 ------- 2 0.0 3.0 18 18
- 0.258 4 3 cbr 1000 ------- 2 0.0 3.0 18 18
r 0.258706 4 3 cbr 1000 ------- 2 0.0 3.0 15 15
+ 0.26 0 4 cbr 1000 ------- 2 0.0 3.0 20 20
- 0.26 0 4 cbr 1000 ------- 2 0.0 3.0 20 20
r 0.266 0 4 cbr 1000 ------- 2 0.0 3.0 19 19
+ 0.266 4 3 cbr 1000 ------- 2 0.0 3.0 19 19
- 0.266 4 3 cbr 1000 ------- 2 0.0 3.0 19 19
r 0.266706 4 3 cbr 1000 ------- 2 0.0 3.0 16 16
+ 0.268 0 4 cbr 1000 ------- 2 0.0 3.0 21 21
- 0.268 0 4 cbr 1000 ------- 2 0.0 3.0 21 21
r 0.274 0 4 cbr 1000 ------- 2 0.0 3.0 20 20
+ 0.274 4 3 cbr 1000 ------- 2 0.0 3.0 20 20
- 0.274 4 3 cbr 1000 ------- 2 0.0 3.0 20 20
r 0.274706 4 3 cbr 1000 ------- 2 0.0 3.0 17 17
+ 0.276 0 4 cbr 1000 ------- 2 0.0 3.0 22 22
- 0.276 0 4 cbr 1000 ------- 2 0.0 3.0 22 22
r 0.282 0 4 cbr 1000 ------- 2 0.0 3.0 21 21
+ 0.282 4 3 cbr 1000 ------- 2 0.0 3.0 21 21
- 0.282 4 3 cbr 1000 ------- 2 0.0 3.0 21 21
r 0.282706 4 3 cbr 1000 ------- 2 0.0 3.0 18 18
+ 0.284 0 4 cbr 1000 ------- 2 0.0 3.0 23 23
- 0.284 0 4 cbr 1000 ------- 2 0.0 3.0 23 23
r 0.29 0 4 cbr 1000 ------- 2 0.0 3.0 22 22
+ 0.29 4 3 cbr 1000 ------- 2 0.0 3.0 22 22
- 0.29 4 3 cbr 1000 ------- 2 0.0 3.0 22 22
r 0.290706 4 3 cbr 1000 ------- 2 0.0 3.0 19 19
+ 0.292 0 4 cbr 1000 ------- 2 0.0 3.0 24 24
- 0.292 0 4 cbr 1000 ------- 2 0.0 3.0 24 24
r 0.298 0 4 cbr 1000 ------- 2 0.0 3.0 23 23
+ 0.298 4 3 cbr 1000 ------- 2 0.0 3.0 23 23
- 0.298 4 3 cbr 1000 ------- 2 0.0 3.0 23 23
r 0.298706 4 3 cbr 1000 ------- 2 0.0 3.0 20 20
+ 0.3 0 4 cbr 1000 ------- 2 0.0 3.0 25 25
- 0.3 0 4 cbr 1000 ------- 2 0.0 3.0 25 25
r 0.306 0 4 cbr 1000 ------- 2 0.0 3.0 24 24
+ 0.306 4 3 cbr 1000 ------- 2 0.0 3.0 24 24
- 0.306 4 3 cbr 1000 ------- 2 0.0 3.0 24 24
r 0.306706 4 3 cbr 1000 ------- 2 0.0 3.0 21 21
+ 0.308 0 4 cbr 1000 ------- 2 0.0 3.0 26 26
- 0.308 0 4 cbr 1000 ------- 2 0.0 3.0 26 26
r 0.314 0 4 cbr 1000 ------- 2 0.0 3.0 25 25
+ 0.314 4 3 cbr 1000 ------- 2 0.0 3.0 25 25
- 0.314 4 3 cbr 1000 ------- 2 0.0 3.0 25 25
r 0.314706 4 3 cbr 1000 ------- 2 0.0 3.0 22 22
+ 0.316 0 4 cbr 1000 ------- 2 0.0 3.0 27 27
- 0.316 0 4 cbr 1000 ------- 2 0.0 3.0 27 27
r 0.322 0 4 cbr 1000 ------- 2 0.0 3.0 26 26
+ 0.322 4 3 cbr 1000 ------- 2 0.0 3.0 26 26
- 0.322 4 3 cbr 1000 ------- 2 0.0 3.0 26 26
r 0.322706 4 3 cbr 1000 ------- 2 0.0 3.0 23 23
+ 0.324 0 4 cbr 1000 ------- 2 0.0 3.0 28 28
- 0.324 0 4 cbr 1000 ------- 2 0.0 3.0 28 28
r 0.33 0 4 cbr 1000 ------- 2 0.0 3.0 27 27
+ 0.33 4 3 cbr 1000 ------- 2 0.0 3.0 27 27
- 0.33 4 3 cbr 1000 ------- 2 0.0 3.0 27 27
r 0.330706 4 3 cbr 1000 ------- 2 0.0 3.0 24 24
+ 0.332 0 4 cbr 1000 ------- 2 0.0 3.0 29 29
- 0.332 0 4 cbr 1000 ------- 2 0.0 3.0 29 29
r 0.338 0 4 cbr 1000 ------- 2 0.0 3.0 28 28
+ 0.338 4 3 cbr 1000 ------- 2 0.0 3.0 28 28
- 0.338 4 3 cbr 1000 ------- 2 0.0 3.0 28 28
r 0.338706 4 3 cbr 1000 ------- 2 0.0 3.0 25 25
+ 0.34 0 4 cbr 1000 ------- 2 0.0 3.0 30 30
- 0.34 0 4 cbr 1000 ------- 2 0.0 3.0 30 30
r 0.346 0 4 cbr 1000 ------- 2 0.0 3.0 29 29
+ 0.346 4 3 cbr 1000 ------- 2 0.0 3.0 29 29
- 0.346 4 3 cbr 1000 ------- 2 0.0 3.0 29 29
r 0.346706 4 3 cbr 1000 ------- 2 0.0 3.0 26 26
+ 0.348 0 4 cbr 1000 ------- 2 0.0 3.0 31 31
- 0.348 0 4 cbr 1000 ------- 2 0.0 3.0 31 31
r 0.354 0 4 cbr 1000 ------- 2 0.0 3.0 30 30
+ 0.354 4 3 cbr 1000 ------- 2 0.0 3.0 30 30
- 0.354 4 3 cbr 1000 ------- 2 0.0 3.0 30 30
r 0.354706 4 3 cbr 1000 ------- 2 0.0 3.0 27 27
+ 0.356 0 4 cbr 1000 ------- 2 0.0 3.0 32 32
- 0.356 0 4 cbr 1000 ------- 2 0.0 3.0 32 32
r 0.362 0 4 cbr 1000 ------- 2 0.0 3.0 31 31
+ 0.362 4 3 cbr 1000 ------- 2 0.0 3.0 31 31
- 0.362 4 3 cbr 1000 ------- 2 0.0 3.0 31 31
r 0.362706 4 3 cbr 1000 ------- 2 0.0 3.0 28 28
+ 0.364 0 4 cbr 1000 ------- 2 0.0 3.0 33 33
- 0.364 0 4 cbr 1000 ------- 2 0.0 3.0 33 33
r 0.37 0 4 cbr 1000 ------- 2 0.0 3.0 32 32
+ 0.37 4 3 cbr 1000 ------- 2 0.0 3.0 32 32
- 0.37 4 3 cbr 1000 ------- 2 0.0 3.0 32 32
r 0.370706 4 3 cbr 1000 ------- 2 0.0 3.0 29 29
+ 0.372 0 4 cbr 1000 ------- 2 0.0 3.0 34 34
- 0.372 0 4 cbr 1000 ------- 2 0.0 3.0 34 34
r 0.378 0 4 cbr 1000 ------- 2 0.0 3.0 33 33
+ 0.378 4 3 cbr 1000 ------- 2 0.0 3.0 33 33
- 0.378 4 3 cbr 1000 ------- 2 0.0 3.0 33 33
r 0.378706 4 3 cbr 1000 ------- 2 0.0 3.0 30 30
+ 0.38 0 4 cbr 1000 ------- 2 0.0 3.0 35 35
- 0.38 0 4 cbr 1000 ------- 2 0.0 3.0 35 35
r 0.386 0 4 cbr 1000 ------- 2 0.0 3.0 34 34
+ 0.386 4 3 cbr 1000 ------- 2 0.0 3.0 34 34
- 0.386 4 3 cbr 1000 ------- 2 0.0 3.0 34 34
r 0.386706 4 3 cbr 1000 ------- 2 0.0 3.0 31 31
+ 0.388 0 4 cbr 1000 ------- 2 0.0 3.0 36 36
- 0.388 0 4 cbr 1000 ------- 2 0.0 3.0 36 36
r 0.394 0 4 cbr 1000 ------- 2 0.0 3.0 35 35
+ 0.394 4 3 cbr 1000 ------- 2 0.0 3.0 35 35
- 0.394 4 3 cbr 1000 ------- 2 0.0 3.0 35 35
r 0.394706 4 3 cbr 1000 ------- 2 0.0 3.0 32 32
+ 0.396 0 4 cbr 1000 ------- 2 0.0 3.0 37 37
- 0.396 0 4 cbr 1000 ------- 2 0.0 3.0 37 37
r 0.402 0 4 cbr 1000 ------- 2 0.0 3.0 36 36
+ 0.402 4 3 cbr 1000 ------- 2 0.0 3.0 36 36
- 0.402 4 3 cbr 1000 ------- 2 0.0 3.0 36 36
r 0.402706 4 3 cbr 1000 ------- 2 0.0 3.0 33 33
+ 0.404 0 4 cbr 1000 ------- 2 0.0 3.0 38 38
- 0.404 0 4 cbr 1000 ------- 2 0.0 3.0 38 38
r 0.41 0 4 cbr 1000 ------- 2 0.0 3.0 37 37
+ 0.41 4 3 cbr 1000 ------- 2 0.0 3.0 37 37
- 0.41 4 3 cbr 1000 ------- 2 0.0 3.0 37 37
r 0.410706 4 3 cbr 1000 ------- 2 0.0 3.0 34 34
+ 0.412 0 4 cbr 1000 ------- 2 0.0 3.0 39 39
- 0.412 0 4 cbr 1000 ------- 2 0.0 3.0 39 39
r 0.418 0 4 cbr 1000 ------- 2 0.0 3.0 38 38
+ 0.418 4 3 cbr 1000 ------- 2 0.0 3.0 38 38
- 0.418 4 3 cbr 1000 ------- 2 0.0 3.0 38 38
r 0.418706 4 3 cbr 1000 ------- 2 0.0 3.0 35 35
+ 0.42 0 4 cbr 1000 ------- 2 0.0 3.0 40 40
- 0.42 0 4 cbr 1000 ------- 2 0.0 3.0 40 40
r 0.426 0 4 cbr 1000 ------- 2 0.0 3.0 39 39
+ 0.426 4 3 cbr 1000 ------- 2 0.0 3.0 39 39
- 0.426 4 3 cbr 1000 ------- 2 0.0 3.0 39 39
r 0.426706 4 3 cbr 1000 ------- 2 0.0 3.0 36 36
+ 0.428 0 4 cbr 1000 ------- 2 0.0 3.0 41 41
- 0.428 0 4 cbr 1000 ------- 2 0.0 3.0 41 41
r 0.434 0 4 cbr 1000 ------- 2 0.0 3.0 40 40
+ 0.434 4 3 cbr 1000 ------- 2 0.0 3.0 40 40
- 0.434 4 3 cbr 1000 ------- 2 0.0 3.0 40 40
r 0.434706 4 3 cbr 1000 ------- 2 0.0 3.0 37 37
+ 0.436 0 4 cbr 1000 ------- 2 0.0 3.0 42 42
- 0.436 0 4 cbr 1000 ------- 2 0.0 3.0 42 42
r 0.442 0 4 cbr 1000 ------- 2 0.0 3.0 41 41
+ 0.442 4 3 cbr 1000 ------- 2 0.0 3.0 41 41
- 0.442 4 3 cbr 1000 ------- 2 0.0 3.0 41 41
r 0.442706 4 3 cbr 1000 ------- 2 0.0 3.0 38 38
+ 0.444 0 4 cbr 1000 ------- 2 0.0 3.0 43 43
- 0.444 0 4 cbr 1000 ------- 2 0.0 3.0 43 43
r 0.45 0 4 cbr 1000 ------- 2 0.0 3.0 42 42
+ 0.45 4 3 cbr 1000 ------- 2 0.0 3.0 42 42
- 0.45 4 3 cbr 1000 ------- 2 0.0 3.0 42 42
r 0.450706 4 3 cbr 1000 ------- 2 0.0 3.0 39 39
+ 0.452 0 4 cbr 1000 ------- 2 0.0 3.0 44 44
- 0.452 0 4 cbr 1000 ------- 2 0.0 3.0 44 44
r 0.458 0 4 cbr 1000 ------- 2 0.0 3.0 43 43
+ 0.458 4 3 cbr 1000 ------- 2 0.0 3.0 43 43
- 0.458 4 3 cbr 1000 ------- 2 0.0 3.0 43 43
r 0.458706 4 3 cbr 1000 ------- 2 0.0 3.0 40 40
+ 0.46 0 4 cbr 1000 ------- 2 0.0 3.0 45 45
- 0.46 0 4 cbr 1000 ------- 2 0.0 3.0 45 45
r 0.466 0 4 cbr 1000 ------- 2 0.0 3.0 44 44
+ 0.466 4 3 cbr 1000 ------- 2 0.0 3.0 44 44
- 0.466 4 3 cbr 1000 ------- 2 0.0 3.0 44 44
r 0.466706 4 3 cbr 1000 ------- 2 0.0 3.0 41 41
+ 0.468 0 4 cbr 1000 ------- 2 0.0 3.0 46 46
- 0.468 0 4 cbr 1000 ------- 2 0.0 3.0 46 46
r 0.474 0 4 cbr 1000 ------- 2 0.0 3.0 45 45
+ 0.474 4 3 cbr 1000 ------- 2 0.0 3.0 45 45
- 0.474 4 3 cbr 1000 ------- 2 0.0 3.0 45 45
r 0.474706 4 3 cbr 1000 ------- 2 0.0 3.0 42 42
+ 0.476 0 4 cbr 1000 ------- 2 0.0 3.0 47 47
- 0.476 0 4 cbr 1000 ------- 2 0.0 3.0 47 47
r 0.482 0 4 cbr 1000 ------- 2 0.0 3.0 46 46
+ 0.482 4 3 cbr 1000 ------- 2 0.0 3.0 46 46
- 0.482 4 3 cbr 1000 ------- 2 0.0 3.0 46 46
r 0.482706 4 3 cbr 1000 ------- 2 0.0 3.0 43 43
+ 0.484 0 4 cbr 1000 ------- 2 0.0 3.0 48 48
- 0.484 0 4 cbr 1000 ------- 2 0.0 3.0 48 48
r 0.49 0 4 cbr 1000 ------- 2 0.0 3.0 47 47
+ 0.49 4 3 cbr 1000 ------- 2 0.0 3.0 47 47
- 0.49 4 3 cbr 1000 ------- 2 0.0 3.0 47 47
r 0.490706 4 3 cbr 1000 ------- 2 0.0 3.0 44 44
+ 0.492 0 4 cbr 1000 ------- 2 0.0 3.0 49 49
- 0.492 0 4 cbr 1000 ------- 2 0.0 3.0 49 49
r 0.498 0 4 cbr 1000 ------- 2 0.0 3.0 48 48
+ 0.498 4 3 cbr 1000 ------- 2 0.0 3.0 48 48
- 0.498 4 3 cbr 1000 ------- 2 0.0 3.0 48 48
r 0.498706 4 3 cbr 1000 ------- 2 0.0 3.0 45 45
+ 0.5 0 4 cbr 1000 ------- 2 0.0 3.0 50 50
- 0.5 0 4 cbr 1000 ------- 2 0.0 3.0 50 50
r 0.506 0 4 cbr 1000 ------- 2 0.0 3.0 49 49
+ 0.506 4 3 cbr 1000 ------- 2 0.0 3.0 49 49
- 0.506 4 3 cbr 1000 ------- 2 0.0 3.0 49 49
r 0.506706 4 3 cbr 1000 ------- 2 0.0 3.0 46 46
+ 0.508 0 4 cbr 1000 ------- 2 0.0 3.0 51 51
- 0.508 0 4 cbr 1000 ------- 2 0.0 3.0 51 51
r 0.514 0 4 cbr 1000 ------- 2 0.0 3.0 50 50
+ 0.514 4 3 cbr 1000 ------- 2 0.0 3.0 50 50
- 0.514 4 3 cbr 1000 ------- 2 0.0 3.0 50 50
r 0.514706 4 3 cbr 1000 ------- 2 0.0 3.0 47 47
+ 0.516 0 4 cbr 1000 ------- 2 0.0 3.0 52 52
- 0.516 0 4 cbr 1000 ------- 2 0.0 3.0 52 52
r 0.522 0 4 cbr 1000 ------- 2 0.0 3.0 51 51
+ 0.522 4 3 cbr 1000 ------- 2 0.0 3.0 51 51
- 0.522 4 3 cbr 1000 ------- 2 0.0 3.0 51 51
r 0.522706 4 3 cbr 1000 ------- 2 0.0 3.0 48 48
+ 0.524 0 4 cbr 1000 ------- 2 0.0 3.0 53 53
- 0.524 0 4 cbr 1000 ------- 2 0.0 3.0 53 53
r 0.53 0 4 cbr 1000 ------- 2 0.0 3.0 52 52
+ 0.53 4 3 cbr 1000 ------- 2 0.0 3.0 52 52
- 0.53 4 3 cbr 1000 ------- 2 0.0 3.0 52 52
r 0.530706 4 3 cbr 1000 ------- 2 0.0 3.0 49 49
+ 0.532 0 4 cbr 1000 ------- 2 0.0 3.0 54 54
- 0.532 0 4 cbr 1000 ------- 2 0.0 3.0 54 54
r 0.538 0 4 cbr 1000 ------- 2 0.0 3.0 53 53
+ 0.538 4 3 cbr 1000 ------- 2 0.0 3.0 53 53
- 0.538 4 3 cbr 1000 ------- 2 0.0 3.0 53 53
r 0.538706 4 3 cbr 1000 ------- 2 0.0 3.0 50 50
+ 0.54 0 4 cbr 1000 ------- 2 0.0 3.0 55 55
- 0.54 0 4 cbr 1000 ------- 2 0.0 3.0 55 55
r 0.546 0 4 cbr 1000 ------- 2 0.0 3.0 54 54
+ 0.546 4 3 cbr 1000 ------- 2 0.0 3.0 54 54
- 0.546 4 3 cbr 1000 ------- 2 0.0 3.0 54 54
r 0.546706 4 3 cbr 1000 ------- 2 0.0 3.0 51 51
+ 0.548 0 4 cbr 1000 ------- 2 0.0 3.0 56 56
- 0.548 0 4 cbr 1000 ------- 2 0.0 3.0 56 56
r 0.554 0 4 cbr 1000 ------- 2 0.0 3.0 55 55
+ 0.554 4 3 cbr 1000 ------- 2 0.0 3.0 55 55
- 0.554 4 3 cbr 1000 ------- 2 0.0 3.0 55 55
r 0.554706 4 3 cbr 1000 ------- 2 0.0 3.0 52 52
+ 0.556 0 4 cbr 1000 ------- 2 0.0 3.0 57 57
- 0.556 0 4 cbr 1000 ------- 2 0.0 3.0 57 57
r 0.562 0 4 cbr 1000 ------- 2 0.0 3.0 56 56
+ 0.562 4 3 cbr 1000 ------- 2 0.0 3.0 56 56
- 0.562 4 3 cbr 1000 ------- 2 0.0 3.0 56 56
r 0.562706 4 3 cbr 1000 ------- 2 0.0 3.0 53 53
+ 0.564 0 4 cbr 1000 ------- 2 0.0 3.0 58 58
- 0.564 0 4 cbr 1000 ------- 2 0.0 3.0 58 58
r 0.57 0 4 cbr 1000 ------- 2 0.0 3.0 57 57
+ 0.57 4 3 cbr 1000 ------- 2 0.0 3.0 57 57
- 0.57 4 3 cbr 1000 ------- 2 0.0 3.0 57 57
r 0.570706 4 3 cbr 1000 ------- 2 0.0 3.0 54 54
+ 0.572 0 4 cbr 1000 ------- 2 0.0 3.0 59 59
- 0.572 0 4 cbr 1000 ------- 2 0.0 3.0 59 59
r 0.578 0 4 cbr 1000 ------- 2 0.0 3.0 58 58
+ 0.578 4 3 cbr 1000 ------- 2 0.0 3.0 58 58
- 0.578 4 3 cbr 1000 ------- 2 0.0 3.0 58 58
r 0.578706 4 3 cbr 1000 ------- 2 0.0 3.0 55 55
+ 0.58 0 4 cbr 1000 ------- 2 0.0 3.0 60 60
- 0.58 0 4 cbr 1000 ------- 2 0.0 3.0 60 60
r 0.586 0 4 cbr 1000 ------- 2 0.0 3.0 59 59
+ 0.586 4 3 cbr 1000 ------- 2 0.0 3.0 59 59
- 0.586 4 3 cbr 1000 ------- 2 0.0 3.0 59 59
r 0.586706 4 3 cbr 1000 ------- 2 0.0 3.0 56 56
+ 0.588 0 4 cbr 1000 ------- 2 0.0 3.0 61 61
- 0.588 0 4 cbr 1000 ------- 2 0.0 3.0 61 61
r 0.594 0 4 cbr 1000 ------- 2 0.0 3.0 60 60
+ 0.594 4 3 cbr 1000 ------- 2 0.0 3.0 60 60
- 0.594 4 3 cbr 1000 ------- 2 0.0 3.0 60 60
r 0.594706 4 3 cbr 1000 ------- 2 0.0 3.0 57 57
+ 0.596 0 4 cbr 1000 ------- 2 0.0 3.0 62 62
- 0.596 0 4 cbr 1000 ------- 2 0.0 3.0 62 62
r 0.602 0 4 cbr 1000 ------- 2 0.0 3.0 61 61
+ 0.602 4 3 cbr 1000 ------- 2 0.0 3.0 61 61
- 0.602 4 3 cbr 1000 ------- 2 0.0 3.0 61 61
r 0.602706 4 3 cbr 1000 ------- 2 0.0 3.0 58 58
+ 0.604 0 4 cbr 1000 ------- 2 0.0 3.0 63 63
- 0.604 0 4 cbr 1000 ------- 2 0.0 3.0 63 63
r 0.61 0 4 cbr 1000 ------- 2 0.0 3.0 62 62
+ 0.61 4 3 cbr 1000 ------- 2 0.0 3.0 62 62
- 0.61 4 3 cbr 1000 ------- 2 0.0 3.0 62 62
r 0.610706 4 3 cbr 1000 ------- 2 0.0 3.0 59 59
+ 0.612 0 4 cbr 1000 ------- 2 0.0 3.0 64 64
- 0.612 0 4 cbr 1000 ------- 2 0.0 3.0 64 64
r 0.618 0 4 cbr 1000 ------- 2 0.0 3.0 63 63
+ 0.618 4 3 cbr 1000 ------- 2 0.0 3.0 63 63
- 0.618 4 3 cbr 1000 ------- 2 0.0 3.0 63 63
r 0.618706 4 3 cbr 1000 ------- 2 0.0 3.0 60 60
+ 0.62 0 4 cbr 1000 ------- 2 0.0 3.0 65 65
- 0.62 0 4 cbr 1000 ------- 2 0.0 3.0 65 65
r 0.626 0 4 cbr 1000 ------- 2 0.0 3.0 64 64
+ 0.626 4 3 cbr 1000 ------- 2 0.0 3.0 64 64
- 0.626 4 3 cbr 1000 ------- 2 0.0 3.0 64 64
r 0.626706 4 3 cbr 1000 ------- 2 0.0 3.0 61 61
+ 0.628 0 4 cbr 1000 ------- 2 0.0 3.0 66 66
- 0.628 0 4 cbr 1000 ------- 2 0.0 3.0 66 66
r 0.634 0 4 cbr 1000 ------- 2 0.0 3.0 65 65
+ 0.634 4 3 cbr 1000 ------- 2 0.0 3.0 65 65
- 0.634 4 3 cbr 1000 ------- 2 0.0 3.0 65 65
r 0.634706 4 3 cbr 1000 ------- 2 0.0 3.0 62 62
+ 0.636 0 4 cbr 1000 ------- 2 0.0 3.0 67 67
- 0.636 0 4 cbr 1000 ------- 2 0.0 3.0 67 67
r 0.642 0 4 cbr 1000 ------- 2 0.0 3.0 66 66
+ 0.642 4 3 cbr 1000 ------- 2 0.0 3.0 66 66
- 0.642 4 3 cbr 1000 ------- 2 0.0 3.0 66 66
r 0.642706 4 3 cbr 1000 ------- 2 0.0 3.0 63 63
+ 0.644 0 4 cbr 1000 ------- 2 0.0 3.0 68 68
- 0.644 0 4 cbr 1000 ------- 2 0.0 3.0 68 68
r 0.65 0 4 cbr 1000 ------- 2 0.0 3.0 67 67
+ 0.65 4 3 cbr 1000 ------- 2 0.0 3.0 67 67
- 0.65 4 3 cbr 1000 ------- 2 0.0 3.0 67 67
r 0.650706 4 3 cbr 1000 ------- 2 0.0 3.0 64 64
+ 0.652 0 4 cbr 1000 ------- 2 0.0 3.0 69 69
- 0.652 0 4 cbr 1000 ------- 2 0.0 3.0 69 69
r 0.658 0 4 cbr 1000 ------- 2 0.0 3.0 68 68
+ 0.658 4 3 cbr 1000 ------- 2 0.0 3.0 68 68
- 0.658 4 3 cbr 1000 ------- 2 0.0 3.0 68 68
r 0.658706 4 3 cbr 1000 ------- 2 0.0 3.0 65 65
+ 0.66 0 4 cbr 1000 ------- 2 0.0 3.0 70 70
- 0.66 0 4 cbr 1000 ------- 2 0.0 3.0 70 70
r 0.666 0 4 cbr 1000 ------- 2 0.0 3.0 69 69
+ 0.666 4 3 cbr 1000 ------- 2 0.0 3.0 69 69
- 0.666 4 3 cbr 1000 ------- 2 0.0 3.0 69 69
r 0.666706 4 3 cbr 1000 ------- 2 0.0 3.0 66 66
+ 0.668 0 4 cbr 1000 ------- 2 0.0 3.0 71 71
- 0.668 0 4 cbr 1000 ------- 2 0.0 3.0 71 71
r 0.674 0 4 cbr 1000 ------- 2 0.0 3.0 70 70
+ 0.674 4 3 cbr 1000 ------- 2 0.0 3.0 70 70
- 0.674 4 3 cbr 1000 ------- 2 0.0 3.0 70 70
r 0.674706 4 3 cbr 1000 ------- 2 0.0 3.0 67 67
+ 0.676 0 4 cbr 1000 ------- 2 0.0 3.0 72 72
- 0.676 0 4 cbr 1000 ------- 2 0.0 3.0 72 72
r 0.682 0 4 cbr 1000 ------- 2 0.0 3.0 71 71
+ 0.682 4 3 cbr 1000 ------- 2 0.0 3.0 71 71
- 0.682 4 3 cbr 1000 ------- 2 0.0 3.0 71 71
r 0.682706 4 3 cbr 1000 ------- 2 0.0 3.0 68 68
+ 0.684 0 4 cbr 1000 ------- 2 0.0 3.0 73 73
- 0.684 0 4 cbr 1000 ------- 2 0.0 3.0 73 73
r 0.69 0 4 cbr 1000 ------- 2 0.0 3.0 72 72
+ 0.69 4 3 cbr 1000 ------- 2 0.0 3.0 72 72
- 0.69 4 3 cbr 1000 ------- 2 0.0 3.0 72 72
r 0.690706 4 3 cbr 1000 ------- 2 0.0 3.0 69 69
+ 0.692 0 4 cbr 1000 ------- 2 0.0 3.0 74 74
- 0.692 0 4 cbr 1000 ------- 2 0.0 3.0 74 74
r 0.698 0 4 cbr 1000 ------- 2 0.0 3.0 73 73
+ 0.698 4 3 cbr 1000 ------- 2 0.0 3.0 73 73
- 0.698 4 3 cbr 1000 ------- 2 0.0 3.0 73 73
r 0.698706 4 3 cbr 1000 ------- 2 0.0 3.0 70 70
+ 0.7 0 4 cbr 1000 ------- 2 0.0 3.0 75 75
- 0.7 0 4 cbr 1000 ------- 2 0.0 3.0 75 75
r 0.706 0 4 cbr 1000 ------- 2 0.0 3.0 74 74
+ 0.706 4 3 cbr 1000 ------- 2 0.0 3.0 74 74
- 0.706 4 3 cbr 1000 ------- 2 0.0 3.0 74 74
r 0.706706 4 3 cbr 1000 ------- 2 0.0 3.0 71 71
+ 0.708 0 4 cbr 1000 ------- 2 0.0 3.0 76 76
- 0.708 0 4 cbr 1000 ------- 2 0.0 3.0 76 76
r 0.714 0 4 cbr 1000 ------- 2 0.0 3.0 75 75
+ 0.714 4 3 cbr 1000 ------- 2 0.0 3.0 75 75
- 0.714 4 3 cbr 1000 ------- 2 0.0 3.0 75 75
r 0.714706 4 3 cbr 1000 ------- 2 0.0 3.0 72 72
+ 0.716 0 4 cbr 1000 ------- 2 0.0 3.0 77 77
- 0.716 0 4 cbr 1000 ------- 2 0.0 3.0 77 77
r 0.722 0 4 cbr 1000 ------- 2 0.0 3.0 76 76
+ 0.722 4 3 cbr 1000 ------- 2 0.0 3.0 76 76
- 0.722 4 3 cbr 1000 ------- 2 0.0 3.0 76 76
r 0.722706 4 3 cbr 1000 ------- 2 0.0 3.0 73 73
+ 0.724 0 4 cbr 1000 ------- 2 0.0 3.0 78 78
- 0.724 0 4 cbr 1000 ------- 2 0.0 3.0 78 78
r 0.73 0 4 cbr 1000 ------- 2 0.0 3.0 77 77
+ 0.73 4 3 cbr 1000 ------- 2 0.0 3.0 77 77
- 0.73 4 3 cbr 1000 ------- 2 0.0 3.0 77 77
r 0.730706 4 3 cbr 1000 ------- 2 0.0 3.0 74 74
+ 0.732 0 4 cbr 1000 ------- 2 0.0 3.0 79 79
- 0.732 0 4 cbr 1000 ------- 2 0.0 3.0 79 79
r 0.738 0 4 cbr 1000 ------- 2 0.0 3.0 78 78
+ 0.738 4 3 cbr 1000 ------- 2 0.0 3.0 78 78
- 0.738 4 3 cbr 1000 ------- 2 0.0 3.0 78 78
r 0.738706 4 3 cbr 1000 ------- 2 0.0 3.0 75 75
+ 0.74 0 4 cbr 1000 ------- 2 0.0 3.0 80 80
- 0.74 0 4 cbr 1000 ------- 2 0.0 3.0 80 80
r 0.746 0 4 cbr 1000 ------- 2 0.0 3.0 79 79
+ 0.746 4 3 cbr 1000 ------- 2 0.0 3.0 79 79
- 0.746 4 3 cbr 1000 ------- 2 0.0 3.0 79 79
r 0.746706 4 3 cbr 1000 ------- 2 0.0 3.0 76 76
+ 0.748 0 4 cbr 1000 ------- 2 0.0 3.0 81 81
- 0.748 0 4 cbr 1000 ------- 2 0.0 3.0 81 81
r 0.754 0 4 cbr 1000 ------- 2 0.0 3.0 80 80
+ 0.754 4 3 cbr 1000 ------- 2 0.0 3.0 80 80
- 0.754 4 3 cbr 1000 ------- 2 0.0 3.0 80 80
r 0.754706 4 3 cbr 1000 ------- 2 0.0 3.0 77 77
+ 0.756 0 4 cbr 1000 ------- 2 0.0 3.0 82 82
- 0.756 0 4 cbr 1000 ------- 2 0.0 3.0 82 82
r 0.762 0 4 cbr 1000 ------- 2 0.0 3.0 81 81
+ 0.762 4 3 cbr 1000 ------- 2 0.0 3.0 81 81
- 0.762 4 3 cbr 1000 ------- 2 0.0 3.0 81 81
r 0.762706 4 3 cbr 1000 ------- 2 0.0 3.0 78 78
+ 0.764 0 4 cbr 1000 ------- 2 0.0 3.0 83 83
- 0.764 0 4 cbr 1000 ------- 2 0.0 3.0 83 83
r 0.77 0 4 cbr 1000 ------- 2 0.0 3.0 82 82
+ 0.77 4 3 cbr 1000 ------- 2 0.0 3.0 82 82
- 0.77 4 3 cbr 1000 ------- 2 0.0 3.0 82 82
r 0.770706 4 3 cbr 1000 ------- 2 0.0 3.0 79 79
+ 0.772 0 4 cbr 1000 ------- 2 0.0 3.0 84 84
- 0.772 0 4 cbr 1000 ------- 2 0.0 3.0 84 84
r 0.778 0 4 cbr 1000 ------- 2 0.0 3.0 83 83
+ 0.778 4 3 cbr 1000 ------- 2 0.0 3.0 83 83
- 0.778 4 3 cbr 1000 ------- 2 0.0 3.0 83 83
r 0.778706 4 3 cbr 1000 ------- 2 0.0 3.0 80 80
+ 0.78 0 4 cbr 1000 ------- 2 0.0 3.0 85 85
- 0.78 0 4 cbr 1000 ------- 2 0.0 3.0 85 85
r 0.786 0 4 cbr 1000 ------- 2 0.0 3.0 84 84
+ 0.786 4 3 cbr 1000 ------- 2 0.0 3.0 84 84
- 0.786 4 3 cbr 1000 ------- 2 0.0 3.0 84 84
r 0.786706 4 3 cbr 1000 ------- 2 0.0 3.0 81 81
+ 0.788 0 4 cbr 1000 ------- 2 0.0 3.0 86 86
- 0.788 0 4 cbr 1000 ------- 2 0.0 3.0 86 86
r 0.794 0 4 cbr 1000 ------- 2 0.0 3.0 85 85
+ 0.794 4 3 cbr 1000 ------- 2 0.0 3.0 85 85
- 0.794 4 3 cbr 1000 ------- 2 0.0 3.0 85 85
r 0.794706 4 3 cbr 1000 ------- 2 0.0 3.0 82 82
+ 0.796 0 4 cbr 1000 ------- 2 0.0 3.0 87 87
- 0.796 0 4 cbr 1000 ------- 2 0.0 3.0 87 87
r 0.802 0 4 cbr 1000 ------- 2 0.0 3.0 86 86
+ 0.802 4 3 cbr 1000 ------- 2 0.0 3.0 86 86
- 0.802 4 3 cbr 1000 ------- 2 0.0 3.0 86 86
r 0.802706 4 3 cbr 1000 ------- 2 0.0 3.0 83 83
+ 0.804 0 4 cbr 1000 ------- 2 0.0 3.0 88 88
- 0.804 0 4 cbr 1000 ------- 2 0.0 3.0 88 88
r 0.81 0 4 cbr 1000 ------- 2 0.0 3.0 87 87
+ 0.81 4 3 cbr 1000 ------- 2 0.0 3.0 87 87
- 0.81 4 3 cbr 1000 ------- 2 0.0 3.0 87 87
r 0.810706 4 3 cbr 1000 ------- 2 0.0 3.0 84 84
+ 0.812 0 4 cbr 1000 ------- 2 0.0 3.0 89 89
- 0.812 0 4 cbr 1000 ------- 2 0.0 3.0 89 89
r 0.818 0 4 cbr 1000 ------- 2 0.0 3.0 88 88
+ 0.818 4 3 cbr 1000 ------- 2 0.0 3.0 88 88
- 0.818 4 3 cbr 1000 ------- 2 0.0 3.0 88 88
r 0.818706 4 3 cbr 1000 ------- 2 0.0 3.0 85 85
+ 0.82 0 4 cbr 1000 ------- 2 0.0 3.0 90 90
- 0.82 0 4 cbr 1000 ------- 2 0.0 3.0 90 90
r 0.826 0 4 cbr 1000 ------- 2 0.0 3.0 89 89
+ 0.826 4 3 cbr 1000 ------- 2 0.0 3.0 89 89
- 0.826 4 3 cbr 1000 ------- 2 0.0 3.0 89 89
r 0.826706 4 3 cbr 1000 ------- 2 0.0 3.0 86 86
+ 0.828 0 4 cbr 1000 ------- 2 0.0 3.0 91 91
- 0.828 0 4 cbr 1000 ------- 2 0.0 3.0 91 91
r 0.834 0 4 cbr 1000 ------- 2 0.0 3.0 90 90
+ 0.834 4 3 cbr 1000 ------- 2 0.0 3.0 90 90
- 0.834 4 3 cbr 1000 ------- 2 0.0 3.0 90 90
r 0.834706 4 3 cbr 1000 ------- 2 0.0 3.0 87 87
+ 0.836 0 4 cbr 1000 ------- 2 0.0 3.0 92 92
- 0.836 0 4 cbr 1000 ------- 2 0.0 3.0 92 92
r 0.842 0 4 cbr 1000 ------- 2 0.0 3.0 91 91
+ 0.842 4 3 cbr 1000 ------- 2 0.0 3.0 91 91
- 0.842 4 3 cbr 1000 ------- 2 0.0 3.0 91 91
r 0.842706 4 3 cbr 1000 ------- 2 0.0 3.0 88 88
+ 0.844 0 4 cbr 1000 ------- 2 0.0 3.0 93 93
- 0.844 0 4 cbr 1000 ------- 2 0.0 3.0 93 93
r 0.85 0 4 cbr 1000 ------- 2 0.0 3.0 92 92
+ 0.85 4 3 cbr 1000 ------- 2 0.0 3.0 92 92
- 0.85 4 3 cbr 1000 ------- 2 0.0 3.0 92 92
r 0.850706 4 3 cbr 1000 ------- 2 0.0 3.0 89 89
+ 0.852 0 4 cbr 1000 ------- 2 0.0 3.0 94 94
- 0.852 0 4 cbr 1000 ------- 2 0.0 3.0 94 94
r 0.858 0 4 cbr 1000 ------- 2 0.0 3.0 93 93
+ 0.858 4 3 cbr 1000 ------- 2 0.0 3.0 93 93
- 0.858 4 3 cbr 1000 ------- 2 0.0 3.0 93 93
r 0.858706 4 3 cbr 1000 ------- 2 0.0 3.0 90 90
+ 0.86 0 4 cbr 1000 ------- 2 0.0 3.0 95 95
- 0.86 0 4 cbr 1000 ------- 2 0.0 3.0 95 95
r 0.866 0 4 cbr 1000 ------- 2 0.0 3.0 94 94
+ 0.866 4 3 cbr 1000 ------- 2 0.0 3.0 94 94
- 0.866 4 3 cbr 1000 ------- 2 0.0 3.0 94 94
r 0.866706 4 3 cbr 1000 ------- 2 0.0 3.0 91 91
+ 0.868 0 4 cbr 1000 ------- 2 0.0 3.0 96 96
- 0.868 0 4 cbr 1000 ------- 2 0.0 3.0 96 96
r 0.874 0 4 cbr 1000 ------- 2 0.0 3.0 95 95
+ 0.874 4 3 cbr 1000 ------- 2 0.0 3.0 95 95
- 0.874 4 3 cbr 1000 ------- 2 0.0 3.0 95 95
r 0.874706 4 3 cbr 1000 ------- 2 0.0 3.0 92 92
+ 0.876 0 4 cbr 1000 ------- 2 0.0 3.0 97 97
- 0.876 0 4 cbr 1000 ------- 2 0.0 3.0 97 97
r 0.882 0 4 cbr 1000 ------- 2 0.0 3.0 96 96
+ 0.882 4 3 cbr 1000 ------- 2 0.0 3.0 96 96
- 0.882 4 3 cbr 1000 ------- 2 0.0 3.0 96 96
r 0.882706 4 3 cbr 1000 ------- 2 0.0 3.0 93 93
+ 0.884 0 4 cbr 1000 ------- 2 0.0 3.0 98 98
- 0.884 0 4 cbr 1000 ------- 2 0.0 3.0 98 98
r 0.89 0 4 cbr 1000 ------- 2 0.0 3.0 97 97
+ 0.89 4 3 cbr 1000 ------- 2 0.0 3.0 97 97
- 0.89 4 3 cbr 1000 ------- 2 0.0 3.0 97 97
r 0.890706 4 3 cbr 1000 ------- 2 0.0 3.0 94 94
+ 0.892 0 4 cbr 1000 ------- 2 0.0 3.0 99 99
- 0.892 0 4 cbr 1000 ------- 2 0.0 3.0 99 99
r 0.898 0 4 cbr 1000 ------- 2 0.0 3.0 98 98
+ 0.898 4 3 cbr 1000 ------- 2 0.0 3.0 98 98
- 0.898 4 3 cbr 1000 ------- 2 0.0 3.0 98 98
r 0.898706 4 3 cbr 1000 ------- 2 0.0 3.0 95 95
+ 0.9 0 4 cbr 1000 ------- 2 0.0 3.0 100 100
- 0.9 0 4 cbr 1000 ------- 2 0.0 3.0 100 100
r 0.906 0 4 cbr 1000 ------- 2 0.0 3.0 99 99
+ 0.906 4 3 cbr 1000 ------- 2 0.0 3.0 99 99
- 0.906 4 3 cbr 1000 ------- 2 0.0 3.0 99 99
r 0.906706 4 3 cbr 1000 ------- 2 0.0 3.0 96 96
+ 0.908 0 4 cbr 1000 ------- 2 0.0 3.0 101 101
- 0.908 0 4 cbr 1000 ------- 2 0.0 3.0 101 101
r 0.914 0 4 cbr 1000 ------- 2 0.0 3.0 100 100
+ 0.914 4 3 cbr 1000 ------- 2 0.0 3.0 100 100
- 0.914 4 3 cbr 1000 ------- 2 0.0 3.0 100 100
r 0.914706 4 3 cbr 1000 ------- 2 0.0 3.0 97 97
+ 0.916 0 4 cbr 1000 ------- 2 0.0 3.0 102 102
- 0.916 0 4 cbr 1000 ------- 2 0.0 3.0 102 102
r 0.922 0 4 cbr 1000 ------- 2 0.0 3.0 101 101
+ 0.922 4 3 cbr 1000 ------- 2 0.0 3.0 101 101
- 0.922 4 3 cbr 1000 ------- 2 0.0 3.0 101 101
r 0.922706 4 3 cbr 1000 ------- 2 0.0 3.0 98 98
+ 0.924 0 4 cbr 1000 ------- 2 0.0 3.0 103 103
- 0.924 0 4 cbr 1000 ------- 2 0.0 3.0 103 103
r 0.93 0 4 cbr 1000 ------- 2 0.0 3.0 102 102
+ 0.93 4 3 cbr 1000 ------- 2 0.0 3.0 102 102
- 0.93 4 3 cbr 1000 ------- 2 0.0 3.0 102 102
r 0.930706 4 3 cbr 1000 ------- 2 0.0 3.0 99 99
+ 0.932 0 4 cbr 1000 ------- 2 0.0 3.0 104 104
- 0.932 0 4 cbr 1000 ------- 2 0.0 3.0 104 104
r 0.938 0 4 cbr 1000 ------- 2 0.0 3.0 103 103
+ 0.938 4 3 cbr 1000 ------- 2 0.0 3.0 103 103
- 0.938 4 3 cbr 1000 ------- 2 0.0 3.0 103 103
r 0.938706 4 3 cbr 1000 ------- 2 0.0 3.0 100 100
+ 0.94 0 4 cbr 1000 ------- 2 0.0 3.0 105 105
- 0.94 0 4 cbr 1000 ------- 2 0.0 3.0 105 105
r 0.946 0 4 cbr 1000 ------- 2 0.0 3.0 104 104
+ 0.946 4 3 cbr 1000 ------- 2 0.0 3.0 104 104
- 0.946 4 3 cbr 1000 ------- 2 0.0 3.0 104 104
r 0.946706 4 3 cbr 1000 ------- 2 0.0 3.0 101 101
+ 0.948 0 4 cbr 1000 ------- 2 0.0 3.0 106 106
- 0.948 0 4 cbr 1000 ------- 2 0.0 3.0 106 106
r 0.954 0 4 cbr 1000 ------- 2 0.0 3.0 105 105
+ 0.954 4 3 cbr 1000 ------- 2 0.0 3.0 105 105
- 0.954 4 3 cbr 1000 ------- 2 0.0 3.0 105 105
r 0.954706 4 3 cbr 1000 ------- 2 0.0 3.0 102 102
+ 0.956 0 4 cbr 1000 ------- 2 0.0 3.0 107 107
- 0.956 0 4 cbr 1000 ------- 2 0.0 3.0 107 107
r 0.962 0 4 cbr 1000 ------- 2 0.0 3.0 106 106
+ 0.962 4 3 cbr 1000 ------- 2 0.0 3.0 106 106
- 0.962 4 3 cbr 1000 ------- 2 0.0 3.0 106 106
r 0.962706 4 3 cbr 1000 ------- 2 0.0 3.0 103 103
+ 0.964 0 4 cbr 1000 ------- 2 0.0 3.0 108 108
- 0.964 0 4 cbr 1000 ------- 2 0.0 3.0 108 108
r 0.97 0 4 cbr 1000 ------- 2 0.0 3.0 107 107
+ 0.97 4 3 cbr 1000 ------- 2 0.0 3.0 107 107
- 0.97 4 3 cbr 1000 ------- 2 0.0 3.0 107 107
r 0.970706 4 3 cbr 1000 ------- 2 0.0 3.0 104 104
+ 0.972 0 4 cbr 1000 ------- 2 0.0 3.0 109 109
- 0.972 0 4 cbr 1000 ------- 2 0.0 3.0 109 109
r 0.978 0 4 cbr 1000 ------- 2 0.0 3.0 108 108
+ 0.978 4 3 cbr 1000 ------- 2 0.0 3.0 108 108
- 0.978 4 3 cbr 1000 ------- 2 0.0 3.0 108 108
r 0.978706 4 3 cbr 1000 ------- 2 0.0 3.0 105 105
+ 0.98 0 4 cbr 1000 ------- 2 0.0 3.0 110 110
- 0.98 0 4 cbr 1000 ------- 2 0.0 3.0 110 110
r 0.986 0 4 cbr 1000 ------- 2 0.0 3.0 109 109
+ 0.986 4 3 cbr 1000 ------- 2 0.0 3.0 109 109
- 0.986 4 3 cbr 1000 ------- 2 0.0 3.0 109 109
r 0.986706 4 3 cbr 1000 ------- 2 0.0 3.0 106 106
+ 0.988 0 4 cbr 1000 ------- 2 0.0 3.0 111 111
- 0.988 0 4 cbr 1000 ------- 2 0.0 3.0 111 111
r 0.994 0 4 cbr 1000 ------- 2 0.0 3.0 110 110