+ 0.4 0 1 cbr 1000 ------- 2 0.0 2.0 0 0
- 0.4 0 1 cbr 1000 ------- 2 0.0 2.0 0 0
r 0.458 0 1 cbr 1000 ------- 2 0.0 2.0 0 0
+ 0.458 1 2 cbr 1000 ------- 2 0.0 2.0 0 0
- 0.458 1 2 cbr 1000 ------- 2 0.0 2.0 0 0
r 0.543 1 2 cbr 1000 ------- 2 0.0 2.0 0 0
+ 0.6 0 1 cbr 1000 ------- 2 0.0 2.0 1 1
- 0.6 0 1 cbr 1000 ------- 2 0.0 2.0 1 1
r 0.658 0 1 cbr 1000 ------- 2 0.0 2.0 1 1
+ 0.658 1 2 cbr 1000 ------- 2 0.0 2.0 1 1
- 0.658 1 2 cbr 1000 ------- 2 0.0 2.0 1 1
r 0.743 1 2 cbr 1000 ------- 2 0.0 2.0 1 1
+ 0.8 0 1 cbr 1000 ------- 2 0.0 2.0 2 2
- 0.8 0 1 cbr 1000 ------- 2 0.0 2.0 2 2
r 0.858 0 1 cbr 1000 ------- 2 0.0 2.0 2 2
+ 0.858 1 2 cbr 1000 ------- 2 0.0 2.0 2 2
- 0.858 1 2 cbr 1000 ------- 2 0.0 2.0 2 2
r 0.943 1 2 cbr 1000 ------- 2 0.0 2.0 2 2
+ 1 0 1 cbr 1000 ------- 2 0.0 2.0 3 3
- 1 0 1 cbr 1000 ------- 2 0.0 2.0 3 3
r 1.058 0 1 cbr 1000 ------- 2 0.0 2.0 3 3
+ 1.058 1 2 cbr 1000 ------- 2 0.0 2.0 3 3
- 1.058 1 2 cbr 1000 ------- 2 0.0 2.0 3 3
r 1.143 1 2 cbr 1000 ------- 2 0.0 2.0 3 3
+ 1.2 0 1 cbr 1000 ------- 2 0.0 2.0 4 4
- 1.2 0 1 cbr 1000 ------- 2 0.0 2.0 4 4
r 1.258 0 1 cbr 1000 ------- 2 0.0 2.0 4 4
+ 1.258 1 2 cbr 1000 ------- 2 0.0 2.0 4 4
- 1.258 1 2 cbr 1000 ------- 2 0.0 2.0 4 4
r 1.343 1 2 cbr 1000 ------- 2 0.0 2.0 4 4
+ 1.4 0 1 cbr 1000 ------- 2 0.0 2.0 5 5
- 1.4 0 1 cbr 1000 ------- 2 0.0 2.0 5 5
r 1.458 0 1 cbr 1000 ------- 2 0.0 2.0 5 5
+ 1.458 1 2 cbr 1000 ------- 2 0.0 2.0 5 5
- 1.458 1 2 cbr 1000 ------- 2 0.0 2.0 5 5
r 1.543 1 2 cbr 1000 ------- 2 0.0 2.0 5 5
+ 1.6 0 1 cbr 1000 ------- 2 0.0 2.0 6 6
- 1.6 0 1 cbr 1000 ------- 2 0.0 2.0 6 6
r 1.658 0 1 cbr 1000 ------- 2 0.0 2.0 6 6
+ 1.658 1 2 cbr 1000 ------- 2 0.0 2.0 6 6
- 1.658 1 2 cbr 1000 ------- 2 0.0 2.0 6 6
r 1.743 1 2 cbr 1000 ------- 2 0.0 2.0 6 6
+ 1.8 0 1 cbr 1000 ------- 2 0.0 2.0 7 7
- 1.8 0 1 cbr 1000 ------- 2 0.0 2.0 7 7
r 1.858 0 1 cbr 1000 ------- 2 0.0 2.0 7 7
+ 1.858 1 2 cbr 1000 ------- 2 0.0 2.0 7 7
- 1.858 1 2 cbr 1000 ------- 2 0.0 2.0 7 7
r 1.943 1 2 cbr 1000 ------- 2 0.0 2.0 7 7
+ 2 0 1 cbr 1000 ------- 2 0.0 2.0 8 8
- 2 0 1 cbr 1000 ------- 2 0.0 2.0 8 8
r 2.058 0 1 cbr 1000 ------- 2 0.0 2.0 8 8
+ 2.058 1 2 cbr 1000 ------- 2 0.0 2.0 8 8
- 2.058 1 2 cbr 1000 ------- 2 0.0 2.0 8 8
r 2.143 1 2 cbr 1000 ------- 2 0.0 2.0 8 8
+ 2.2 0 1 cbr 1000 ------- 2 0.0 2.0 9 9
- 2.2 0 1 cbr 1000 ------- 2 0.0 2.0 9 9
r 2.258 0 1 cbr 1000 ------- 2 0.0 2.0 9 9
+ 2.258 1 2 cbr 1000 ------- 2 0.0 2.0 9 9
- 2.258 1 2 cbr 1000 ------- 2 0.0 2.0 9 9
r 2.343 1 2 cbr 1000 ------- 2 0.0 2.0 9 9
+ 2.4 0 1 cbr 1000 ------- 2 0.0 2.0 10 10
- 2.4 0 1 cbr 1000 ------- 2 0.0 2.0 10 10
r 2.458 0 1 cbr 1000 ------- 2 0.0 2.0 10 10
+ 2.458 1 2 cbr 1000 ------- 2 0.0 2.0 10 10
- 2.458 1 2 cbr 1000 ------- 2 0.0 2.0 10 10
r 2.543 1 2 cbr 1000 ------- 2 0.0 2.0 10 10
+ 2.6 0 1 cbr 1000 ------- 2 0.0 2.0 11 11
- 2.6 0 1 cbr 1000 ------- 2 0.0 2.0 11 11
r 2.658 0 1 cbr 1000 ------- 2 0.0 2.0 11 11
+ 2.658 1 2 cbr 1000 ------- 2 0.0 2.0 11 11
- 2.658 1 2 cbr 1000 ------- 2 0.0 2.0 11 11
r 2.743 1 2 cbr 1000 ------- 2 0.0 2.0 11 11
+ 2.8 0 1 cbr 1000 ------- 2 0.0 2.0 12 12
- 2.8 0 1 cbr 1000 ------- 2 0.0 2.0 12 12
r 2.858 0 1 cbr 1000 ------- 2 0.0 2.0 12 12
+ 2.858 1 2 cbr 1000 ------- 2 0.0 2.0 12 12
- 2.858 1 2 cbr 1000 ------- 2 0.0 2.0 12 12
r 2.943 1 2 cbr 1000 ------- 2 0.0 2.0 12 12
+ 3 0 1 cbr 1000 ------- 2 0.0 2.0 13 13
- 3 0 1 cbr 1000 ------- 2 0.0 2.0 13 13
r 3.058 0 1 cbr 1000 ------- 2 0.0 2.0 13 13
+ 3.058 1 2 cbr 1000 ------- 2 0.0 2.0 13 13
- 3.058 1 2 cbr 1000 ------- 2 0.0 2.0 13 13
r 3.143 1 2 cbr 1000 ------- 2 0.0 2.0 13 13
+ 3.2 0 1 cbr 1000 ------- 2 0.0 2.0 14 14
- 3.2 0 1 cbr 1000 ------- 2 0.0 2.0 14 14
r 3.258 0 1 cbr 1000 ------- 2 0.0 2.0 14 14
+ 3.258 1 2 cbr 1000 ------- 2 0.0 2.0 14 14
- 3.258 1 2 cbr 1000 ------- 2 0.0 2.0 14 14
r 3.343 1 2 cbr 1000 ------- 2 0.0 2.0 14 14
+ 3.4 0 1 cbr 1000 ------- 2 0.0 2.0 15 15
- 3.4 0 1 cbr 1000 ------- 2 0.0 2.0 15 15
r 3.458 0 1 cbr 1000 ------- 2 0.0 2.0 15 15
+ 3.458 1 2 cbr 1000 ------- 2 0.0 2.0 15 15
- 3.458 1 2 cbr 1000 ------- 2 0.0 2.0 15 15
r 3.543 1 2 cbr 1000 ------- 2 0.0 2.0 15 15
+ 3.6 0 1 cbr 1000 ------- 2 0.0 2.0 16 16
- 3.6 0 1 cbr 1000 ------- 2 0.0 2.0 16 16
r 3.658 0 1 cbr 1000 ------- 2 0.0 2.0 16 16
+ 3.658 1 2 cbr 1000 ------- 2 0.0 2.0 16 16
- 3.658 1 2 cbr 1000 ------- 2 0.0 2.0 16 16
r 3.743 1 2 cbr 1000 ------- 2 0.0 2.0 16 16
+ 3.8 0 1 cbr 1000 ------- 2 0.0 2.0 17 17
- 3.8 0 1 cbr 1000 ------- 2 0.0 2.0 17 17
r 3.858 0 1 cbr 1000 ------- 2 0.0 2.0 17 17
+ 3.858 1 2 cbr 1000 ------- 2 0.0 2.0 17 17
- 3.858 1 2 cbr 1000 ------- 2 0.0 2.0 17 17
r 3.943 1 2 cbr 1000 ------- 2 0.0 2.0 17 17
+ 4 0 1 cbr 1000 ------- 2 0.0 2.0 18 18
- 4 0 1 cbr 1000 ------- 2 0.0 2.0 18 18
r 4.058 0 1 cbr 1000 ------- 2 0.0 2.0 18 18
+ 4.058 1 2 cbr 1000 ------- 2 0.0 2.0 18 18
- 4.058 1 2 cbr 1000 ------- 2 0.0 2.0 18 18
r 4.143 1 2 cbr 1000 ------- 2 0.0 2.0 18 18
+ 4.2 0 1 cbr 1000 ------- 2 0.0 2.0 19 19
- 4.2 0 1 cbr 1000 ------- 2 0.0 2.0 19 19
r 4.258 0 1 cbr 1000 ------- 2 0.0 2.0 19 19
+ 4.258 1 2 cbr 1000 ------- 2 0.0 2.0 19 19
- 4.258 1 2 cbr 1000 ------- 2 0.0 2.0 19 19
r 4.343 1 2 cbr 1000 ------- 2 0.0 2.0 19 19
+ 4.4 0 1 cbr 1000 ------- 2 0.0 2.0 20 20
- 4.4 0 1 cbr 1000 ------- 2 0.0 2.0 20 20
r 4.458 0 1 cbr 1000 ------- 2 0.0 2.0 20 20
+ 4.458 1 2 cbr 1000 ------- 2 0.0 2.0 20 20
- 4.458 1 2 cbr 1000 ------- 2 0.0 2.0 20 20
r 4.543 1 2 cbr 1000 ------- 2 0.0 2.0 20 20
+ 4.6 0 1 cbr 1000 ------- 2 0.0 2.0 21 21
- 4.6 0 1 cbr 1000 ------- 2 0.0 2.0 21 21
r 4.658 0 1 cbr 1000 ------- 2 0.0 2.0 21 21
+ 4.658 1 2 cbr 1000 ------- 2 0.0 2.0 21 21
- 4.658 1 2 cbr 1000 ------- 2 0.0 2.0 21 21
r 4.743 1 2 cbr 1000 ------- 2 0.0 2.0 21 21
