+ 0.4 0 1 cbr 1000 ------- 2 0.0 2.0 0 0
- 0.4 0 1 cbr 1000 ------- 2 0.0 2.0 0 0
r 0.458 0 1 cbr 1000 ------- 2 0.0 2.0 0 0
+ 0.458 1 2 cbr 1000 ------- 2 0.0 2.0 0 0
- 0.458 1 2 cbr 1000 ------- 2 0.0 2.0 0 0
+ 0.5 0 1 cbr 1000 ------- 2 0.0 2.0 1 1
- 0.5 0 1 cbr 1000 ------- 2 0.0 2.0 1 1
r 0.543 1 2 cbr 1000 ------- 2 0.0 2.0 0 0
r 0.558 0 1 cbr 1000 ------- 2 0.0 2.0 1 1
+ 0.558 1 2 cbr 1000 ------- 2 0.0 2.0 1 1
- 0.558 1 2 cbr 1000 ------- 2 0.0 2.0 1 1
+ 0.6 0 1 cbr 1000 ------- 2 0.0 2.0 2 2
- 0.6 0 1 cbr 1000 ------- 2 0.0 2.0 2 2
r 0.643 1 2 cbr 1000 ------- 2 0.0 2.0 1 1
r 0.658 0 1 cbr 1000 ------- 2 0.0 2.0 2 2
+ 0.658 1 2 cbr 1000 ------- 2 0.0 2.0 2 2
- 0.658 1 2 cbr 1000 ------- 2 0.0 2.0 2 2
+ 0.7 0 1 cbr 1000 ------- 2 0.0 2.0 3 3
- 0.7 0 1 cbr 1000 ------- 2 0.0 2.0 3 3
r 0.743 1 2 cbr 1000 ------- 2 0.0 2.0 2 2
r 0.758 0 1 cbr 1000 ------- 2 0.0 2.0 3 3
+ 0.758 1 2 cbr 1000 ------- 2 0.0 2.0 3 3
- 0.758 1 2 cbr 1000 ------- 2 0.0 2.0 3 3
+ 0.8 0 1 cbr 1000 ------- 2 0.0 2.0 4 4
- 0.8 0 1 cbr 1000 ------- 2 0.0 2.0 4 4
r 0.843 1 2 cbr 1000 ------- 2 0.0 2.0 3 3
r 0.858 0 1 cbr 1000 ------- 2 0.0 2.0 4 4
+ 0.858 1 2 cbr 1000 ------- 2 0.0 2.0 4 4
- 0.858 1 2 cbr 1000 ------- 2 0.0 2.0 4 4
+ 0.9 0 1 cbr 1000 ------- 2 0.0 2.0 5 5
- 0.9 0 1 cbr 1000 ------- 2 0.0 2.0 5 5
r 0.943 1 2 cbr 1000 ------- 2 0.0 2.0 4 4
r 0.958 0 1 cbr 1000 ------- 2 0.0 2.0 5 5
+ 0.958 1 2 cbr 1000 ------- 2 0.0 2.0 5 5
- 0.958 1 2 cbr 1000 ------- 2 0.0 2.0 5 5
+ 1 0 1 cbr 1000 ------- 2 0.0 2.0 6 6
- 1 0 1 cbr 1000 ------- 2 0.0 2.0 6 6
r 1.043 1 2 cbr 1000 ------- 2 0.0 2.0 5 5
r 1.058 0 1 cbr 1000 ------- 2 0.0 2.0 6 6
+ 1.058 1 2 cbr 1000 ------- 2 0.0 2.0 6 6
- 1.058 1 2 cbr 1000 ------- 2 0.0 2.0 6 6
+ 1.1 0 1 cbr 1000 ------- 2 0.0 2.0 7 7
- 1.1 0 1 cbr 1000 ------- 2 0.0 2.0 7 7
r 1.143 1 2 cbr 1000 ------- 2 0.0 2.0 6 6
r 1.158 0 1 cbr 1000 ------- 2 0.0 2.0 7 7
+ 1.158 1 2 cbr 1000 ------- 2 0.0 2.0 7 7
- 1.158 1 2 cbr 1000 ------- 2 0.0 2.0 7 7
+ 1.2 0 1 cbr 1000 ------- 2 0.0 2.0 8 8
- 1.2 0 1 cbr 1000 ------- 2 0.0 2.0 8 8
r 1.243 1 2 cbr 1000 ------- 2 0.0 2.0 7 7
r 1.258 0 1 cbr 1000 ------- 2 0.0 2.0 8 8
+ 1.258 1 2 cbr 1000 ------- 2 0.0 2.0 8 8
- 1.258 1 2 cbr 1000 ------- 2 0.0 2.0 8 8
+ 1.3 0 1 cbr 1000 ------- 2 0.0 2.0 9 9
- 1.3 0 1 cbr 1000 ------- 2 0.0 2.0 9 9
r 1.343 1 2 cbr 1000 ------- 2 0.0 2.0 8 8
r 1.358 0 1 cbr 1000 ------- 2 0.0 2.0 9 9
+ 1.358 1 2 cbr 1000 ------- 2 0.0 2.0 9 9
- 1.358 1 2 cbr 1000 ------- 2 0.0 2.0 9 9
+ 1.4 0 1 cbr 1000 ------- 2 0.0 2.0 10 10
- 1.4 0 1 cbr 1000 ------- 2 0.0 2.0 10 10
r 1.443 1 2 cbr 1000 ------- 2 0.0 2.0 9 9
r 1.458 0 1 cbr 1000 ------- 2 0.0 2.0 10 10
+ 1.458 1 2 cbr 1000 ------- 2 0.0 2.0 10 10
- 1.458 1 2 cbr 1000 ------- 2 0.0 2.0 10 10
+ 1.5 0 1 cbr 1000 ------- 2 0.0 2.0 11 11
- 1.5 0 1 cbr 1000 ------- 2 0.0 2.0 11 11
r 1.543 1 2 cbr 1000 ------- 2 0.0 2.0 10 10
r 1.558 0 1 cbr 1000 ------- 2 0.0 2.0 11 11
+ 1.558 1 2 cbr 1000 ------- 2 0.0 2.0 11 11
- 1.558 1 2 cbr 1000 ------- 2 0.0 2.0 11 11
+ 1.6 0 1 cbr 1000 ------- 2 0.0 2.0 12 12
- 1.6 0 1 cbr 1000 ------- 2 0.0 2.0 12 12
r 1.643 1 2 cbr 1000 ------- 2 0.0 2.0 11 11
r 1.658 0 1 cbr 1000 ------- 2 0.0 2.0 12 12
+ 1.658 1 2 cbr 1000 ------- 2 0.0 2.0 12 12
- 1.658 1 2 cbr 1000 ------- 2 0.0 2.0 12 12
+ 1.7 0 1 cbr 1000 ------- 2 0.0 2.0 13 13
- 1.7 0 1 cbr 1000 ------- 2 0.0 2.0 13 13
r 1.743 1 2 cbr 1000 ------- 2 0.0 2.0 12 12
r 1.758 0 1 cbr 1000 ------- 2 0.0 2.0 13 13
+ 1.758 1 2 cbr 1000 ------- 2 0.0 2.0 13 13
- 1.758 1 2 cbr 1000 ------- 2 0.0 2.0 13 13
+ 1.8 0 1 cbr 1000 ------- 2 0.0 2.0 14 14
- 1.8 0 1 cbr 1000 ------- 2 0.0 2.0 14 14
r 1.843 1 2 cbr 1000 ------- 2 0.0 2.0 13 13
r 1.858 0 1 cbr 1000 ------- 2 0.0 2.0 14 14
+ 1.858 1 2 cbr 1000 ------- 2 0.0 2.0 14 14
- 1.858 1 2 cbr 1000 ------- 2 0.0 2.0 14 14
+ 1.9 0 1 cbr 1000 ------- 2 0.0 2.0 15 15
- 1.9 0 1 cbr 1000 ------- 2 0.0 2.0 15 15
r 1.943 1 2 cbr 1000 ------- 2 0.0 2.0 14 14
r 1.958 0 1 cbr 1000 ------- 2 0.0 2.0 15 15
+ 1.958 1 2 cbr 1000 ------- 2 0.0 2.0 15 15
- 1.958 1 2 cbr 1000 ------- 2 0.0 2.0 15 15
+ 2 0 1 cbr 1000 ------- 2 0.0 2.0 16 16
- 2 0 1 cbr 1000 ------- 2 0.0 2.0 16 16
r 2.043 1 2 cbr 1000 ------- 2 0.0 2.0 15 15
r 2.058 0 1 cbr 1000 ------- 2 0.0 2.0 16 16
+ 2.058 1 2 cbr 1000 ------- 2 0.0 2.0 16 16
- 2.058 1 2 cbr 1000 ------- 2 0.0 2.0 16 16
+ 2.1 0 1 cbr 1000 ------- 2 0.0 2.0 17 17
- 2.1 0 1 cbr 1000 ------- 2 0.0 2.0 17 17
r 2.143 1 2 cbr 1000 ------- 2 0.0 2.0 16 16
r 2.158 0 1 cbr 1000 ------- 2 0.0 2.0 17 17
+ 2.158 1 2 cbr 1000 ------- 2 0.0 2.0 17 17
- 2.158 1 2 cbr 1000 ------- 2 0.0 2.0 17 17
+ 2.2 0 1 cbr 1000 ------- 2 0.0 2.0 18 18
- 2.2 0 1 cbr 1000 ------- 2 0.0 2.0 18 18
r 2.243 1 2 cbr 1000 ------- 2 0.0 2.0 17 17
r 2.258 0 1 cbr 1000 ------- 2 0.0 2.0 18 18
+ 2.258 1 2 cbr 1000 ------- 2 0.0 2.0 18 18
- 2.258 1 2 cbr 1000 ------- 2 0.0 2.0 18 18
+ 2.3 0 1 cbr 1000 ------- 2 0.0 2.0 19 19
- 2.3 0 1 cbr 1000 ------- 2 0.0 2.0 19 19
r 2.343 1 2 cbr 1000 ------- 2 0.0 2.0 18 18
r 2.358 0 1 cbr 1000 ------- 2 0.0 2.0 19 19
+ 2.358 1 2 cbr 1000 ------- 2 0.0 2.0 19 19
- 2.358 1 2 cbr 1000 ------- 2 0.0 2.0 19 19
+ 2.4 0 1 cbr 1000 ------- 2 0.0 2.0 20 20
- 2.4 0 1 cbr 1000 ------- 2 0.0 2.0 20 20
r 2.443 1 2 cbr 1000 ------- 2 0.0 2.0 19 19
r 2.458 0 1 cbr 1000 ------- 2 0.0 2.0 20 20
+ 2.458 1 2 cbr 1000 ------- 2 0.0 2.0 20 20
- 2.458 1 2 cbr 1000 ------- 2 0.0 2.0 20 20
+ 2.5 0 1 cbr 1000 ------- 2 0.0 2.0 21 21
- 2.5 0 1 cbr 1000 ------- 2 0.0 2.0 21 21
r 2.543 1 2 cbr 1000 ------- 2 0.0 2.0 20 20
r 2.558 0 1 cbr 1000 ------- 2 0.0 2.0 21 21
+ 2.558 1 2 cbr 1000 ------- 2 0.0 2.0 21 21
- 2.558 1 2 cbr 1000 ------- 2 0.0 2.0 21 21
+ 2.6 0 1 cbr 1000 ------- 2 0.0 2.0 22 22
- 2.6 0 1 cbr 1000 ------- 2 0.0 2.0 22 22
r 2.643 1 2 cbr 1000 ------- 2 0.0 2.0 21 21
r 2.658 0 1 cbr 1000 ------- 2 0.0 2.0 22 22
+ 2.658 1 2 cbr 1000 ------- 2 0.0 2.0 22 22
- 2.658 1 2 cbr 1000 ------- 2 0.0 2.0 22 22
+ 2.7 0 1 cbr 1000 ------- 2 0.0 2.0 23 23
- 2.7 0 1 cbr 1000 ------- 2 0.0 2.0 23 23
r 2.743 1 2 cbr 1000 ------- 2 0.0 2.0 22 22
r 2.758 0 1 cbr 1000 ------- 2 0.0 2.0 23 23
+ 2.758 1 2 cbr 1000 ------- 2 0.0 2.0 23 23
- 2.758 1 2 cbr 1000 ------- 2 0.0 2.0 23 23
+ 2.8 0 1 cbr 1000 ------- 2 0.0 2.0 24 24
- 2.8 0 1 cbr 1000 ------- 2 0.0 2.0 24 24
r 2.843 1 2 cbr 1000 ------- 2 0.0 2.0 23 23
r 2.858 0 1 cbr 1000 ------- 2 0.0 2.0 24 24
+ 2.858 1 2 cbr 1000 ------- 2 0.0 2.0 24 24
- 2.858 1 2 cbr 1000 ------- 2 0.0 2.0 24 24
+ 2.9 0 1 cbr 1000 ------- 2 0.0 2.0 25 25
- 2.9 0 1 cbr 1000 ------- 2 0.0 2.0 25 25
r 2.943 1 2 cbr 1000 ------- 2 0.0 2.0 24 24
r 2.958 0 1 cbr 1000 ------- 2 0.0 2.0 25 25
+ 2.958 1 2 cbr 1000 ------- 2 0.0 2.0 25 25
- 2.958 1 2 cbr 1000 ------- 2 0.0 2.0 25 25
+ 3 0 1 cbr 1000 ------- 2 0.0 2.0 26 26
- 3 0 1 cbr 1000 ------- 2 0.0 2.0 26 26
r 3.043 1 2 cbr 1000 ------- 2 0.0 2.0 25 25
r 3.058 0 1 cbr 1000 ------- 2 0.0 2.0 26 26
+ 3.058 1 2 cbr 1000 ------- 2 0.0 2.0 26 26
- 3.058 1 2 cbr 1000 ------- 2 0.0 2.0 26 26
+ 3.1 0 1 cbr 1000 ------- 2 0.0 2.0 27 27
- 3.1 0 1 cbr 1000 ------- 2 0.0 2.0 27 27
r 3.143 1 2 cbr 1000 ------- 2 0.0 2.0 26 26
r 3.158 0 1 cbr 1000 ------- 2 0.0 2.0 27 27
+ 3.158 1 2 cbr 1000 ------- 2 0.0 2.0 27 27
- 3.158 1 2 cbr 1000 ------- 2 0.0 2.0 27 27
+ 3.2 0 1 cbr 1000 ------- 2 0.0 2.0 28 28
- 3.2 0 1 cbr 1000 ------- 2 0.0 2.0 28 28
r 3.243 1 2 cbr 1000 ------- 2 0.0 2.0 27 27
r 3.258 0 1 cbr 1000 ------- 2 0.0 2.0 28 28
+ 3.258 1 2 cbr 1000 ------- 2 0.0 2.0 28 28
- 3.258 1 2 cbr 1000 ------- 2 0.0 2.0 28 28
+ 3.3 0 1 cbr 1000 ------- 2 0.0 2.0 29 29
- 3.3 0 1 cbr 1000 ------- 2 0.0 2.0 29 29
r 3.343 1 2 cbr 1000 ------- 2 0.0 2.0 28 28
r 3.358 0 1 cbr 1000 ------- 2 0.0 2.0 29 29
+ 3.358 1 2 cbr 1000 ------- 2 0.0 2.0 29 29
- 3.358 1 2 cbr 1000 ------- 2 0.0 2.0 29 29
+ 3.4 0 1 cbr 1000 ------- 2 0.0 2.0 30 30
- 3.4 0 1 cbr 1000 ------- 2 0.0 2.0 30 30
r 3.443 1 2 cbr 1000 ------- 2 0.0 2.0 29 29
r 3.458 0 1 cbr 1000 ------- 2 0.0 2.0 30 30
+ 3.458 1 2 cbr 1000 ------- 2 0.0 2.0 30 30
- 3.458 1 2 cbr 1000 ------- 2 0.0 2.0 30 30
+ 3.5 0 1 cbr 1000 ------- 2 0.0 2.0 31 31
- 3.5 0 1 cbr 1000 ------- 2 0.0 2.0 31 31
r 3.543 1 2 cbr 1000 ------- 2 0.0 2.0 30 30
r 3.558 0 1 cbr 1000 ------- 2 0.0 2.0 31 31
+ 3.558 1 2 cbr 1000 ------- 2 0.0 2.0 31 31
- 3.558 1 2 cbr 1000 ------- 2 0.0 2.0 31 31
+ 3.6 0 1 cbr 1000 ------- 2 0.0 2.0 32 32
- 3.6 0 1 cbr 1000 ------- 2 0.0 2.0 32 32
r 3.643 1 2 cbr 1000 ------- 2 0.0 2.0 31 31
r 3.658 0 1 cbr 1000 ------- 2 0.0 2.0 32 32
+ 3.658 1 2 cbr 1000 ------- 2 0.0 2.0 32 32
- 3.658 1 2 cbr 1000 ------- 2 0.0 2.0 32 32
+ 3.7 0 1 cbr 1000 ------- 2 0.0 2.0 33 33
- 3.7 0 1 cbr 1000 ------- 2 0.0 2.0 33 33
r 3.743 1 2 cbr 1000 ------- 2 0.0 2.0 32 32
r 3.758 0 1 cbr 1000 ------- 2 0.0 2.0 33 33
+ 3.758 1 2 cbr 1000 ------- 2 0.0 2.0 33 33
- 3.758 1 2 cbr 1000 ------- 2 0.0 2.0 33 33
+ 3.8 0 1 cbr 1000 ------- 2 0.0 2.0 34 34
- 3.8 0 1 cbr 1000 ------- 2 0.0 2.0 34 34
r 3.843 1 2 cbr 1000 ------- 2 0.0 2.0 33 33
r 3.858 0 1 cbr 1000 ------- 2 0.0 2.0 34 34
+ 3.858 1 2 cbr 1000 ------- 2 0.0 2.0 34 34
- 3.858 1 2 cbr 1000 ------- 2 0.0 2.0 34 34
+ 3.9 0 1 cbr 1000 ------- 2 0.0 2.0 35 35
- 3.9 0 1 cbr 1000 ------- 2 0.0 2.0 35 35
r 3.943 1 2 cbr 1000 ------- 2 0.0 2.0 34 34
r 3.958 0 1 cbr 1000 ------- 2 0.0 2.0 35 35
+ 3.958 1 2 cbr 1000 ------- 2 0.0 2.0 35 35
- 3.958 1 2 cbr 1000 ------- 2 0.0 2.0 35 35
+ 4 0 1 cbr 1000 ------- 2 0.0 2.0 36 36
- 4 0 1 cbr 1000 ------- 2 0.0 2.0 36 36
r 4.043 1 2 cbr 1000 ------- 2 0.0 2.0 35 35
r 4.058 0 1 cbr 1000 ------- 2 0.0 2.0 36 36
+ 4.058 1 2 cbr 1000 ------- 2 0.0 2.0 36 36
- 4.058 1 2 cbr 1000 ------- 2 0.0 2.0 36 36
+ 4.1 0 1 cbr 1000 ------- 2 0.0 2.0 37 37
- 4.1 0 1 cbr 1000 ------- 2 0.0 2.0 37 37
r 4.143 1 2 cbr 1000 ------- 2 0.0 2.0 36 36
r 4.158 0 1 cbr 1000 ------- 2 0.0 2.0 37 37
+ 4.158 1 2 cbr 1000 ------- 2 0.0 2.0 37 37
- 4.158 1 2 cbr 1000 ------- 2 0.0 2.0 37 37
+ 4.2 0 1 cbr 1000 ------- 2 0.0 2.0 38 38
- 4.2 0 1 cbr 1000 ------- 2 0.0 2.0 38 38
r 4.243 1 2 cbr 1000 ------- 2 0.0 2.0 37 37
r 4.258 0 1 cbr 1000 ------- 2 0.0 2.0 38 38
+ 4.258 1 2 cbr 1000 ------- 2 0.0 2.0 38 38
- 4.258 1 2 cbr 1000 ------- 2 0.0 2.0 38 38
+ 4.3 0 1 cbr 1000 ------- 2 0.0 2.0 39 39
- 4.3 0 1 cbr 1000 ------- 2 0.0 2.0 39 39
r 4.343 1 2 cbr 1000 ------- 2 0.0 2.0 38 38
r 4.358 0 1 cbr 1000 ------- 2 0.0 2.0 39 39
+ 4.358 1 2 cbr 1000 ------- 2 0.0 2.0 39 39
- 4.358 1 2 cbr 1000 ------- 2 0.0 2.0 39 39
+ 4.4 0 1 cbr 1000 ------- 2 0.0 2.0 40 40
- 4.4 0 1 cbr 1000 ------- 2 0.0 2.0 40 40
r 4.443 1 2 cbr 1000 ------- 2 0.0 2.0 39 39
r 4.458 0 1 cbr 1000 ------- 2 0.0 2.0 40 40
+ 4.458 1 2 cbr 1000 ------- 2 0.0 2.0 40 40
- 4.458 1 2 cbr 1000 ------- 2 0.0 2.0 40 40
+ 4.5 0 1 cbr 1000 ------- 2 0.0 2.0 41 41
- 4.5 0 1 cbr 1000 ------- 2 0.0 2.0 41 41
r 4.543 1 2 cbr 1000 ------- 2 0.0 2.0 40 40
r 4.558 0 1 cbr 1000 ------- 2 0.0 2.0 41 41
+ 4.558 1 2 cbr 1000 ------- 2 0.0 2.0 41 41
- 4.558 1 2 cbr 1000 ------- 2 0.0 2.0 41 41
+ 4.6 0 1 cbr 1000 ------- 2 0.0 2.0 42 42
- 4.6 0 1 cbr 1000 ------- 2 0.0 2.0 42 42
r 4.643 1 2 cbr 1000 ------- 2 0.0 2.0 41 41
r 4.658 0 1 cbr 1000 ------- 2 0.0 2.0 42 42
+ 4.658 1 2 cbr 1000 ------- 2 0.0 2.0 42 42
- 4.658 1 2 cbr 1000 ------- 2 0.0 2.0 42 42
+ 4.7 0 1 cbr 1000 ------- 2 0.0 2.0 43 43
- 4.7 0 1 cbr 1000 ------- 2 0.0 2.0 43 43
r 4.743 1 2 cbr 1000 ------- 2 0.0 2.0 42 42
r 4.758 0 1 cbr 1000 ------- 2 0.0 2.0 43 43
+ 4.758 1 2 cbr 1000 ------- 2 0.0 2.0 43 43
- 4.758 1 2 cbr 1000 ------- 2 0.0 2.0 43 43
+ 4.8 0 1 cbr 1000 ------- 2 0.0 2.0 44 44
- 4.8 0 1 cbr 1000 ------- 2 0.0 2.0 44 44
r 4.843 1 2 cbr 1000 ------- 2 0.0 2.0 43 43
r 4.858 0 1 cbr 1000 ------- 2 0.0 2.0 44 44
+ 4.858 1 2 cbr 1000 ------- 2 0.0 2.0 44 44
- 4.858 1 2 cbr 1000 ------- 2 0.0 2.0 44 44
r 4.943 1 2 cbr 1000 ------- 2 0.0 2.0 44 44
