+ 0.4 0 1 cbr 1000 ------- 2 0.0 2.0 0 0
- 0.4 0 1 cbr 1000 ------- 2 0.0 2.0 0 0
r 0.458 0 1 cbr 1000 ------- 2 0.0 2.0 0 0
+ 0.458 1 2 cbr 1000 ------- 2 0.0 2.0 0 0
- 0.458 1 2 cbr 1000 ------- 2 0.0 2.0 0 0
+ 0.466667 0 1 cbr 1000 ------- 2 0.0 2.0 1 1
- 0.466667 0 1 cbr 1000 ------- 2 0.0 2.0 1 1
r 0.524667 0 1 cbr 1000 ------- 2 0.0 2.0 1 1
+ 0.524667 1 2 cbr 1000 ------- 2 0.0 2.0 1 1
+ 0.533333 0 1 cbr 1000 ------- 2 0.0 2.0 2 2
- 0.533333 0 1 cbr 1000 ------- 2 0.0 2.0 2 2
- 0.538 1 2 cbr 1000 ------- 2 0.0 2.0 1 1
r 0.543 1 2 cbr 1000 ------- 2 0.0 2.0 0 0
r 0.591333 0 1 cbr 1000 ------- 2 0.0 2.0 2 2
+ 0.591333 1 2 cbr 1000 ------- 2 0.0 2.0 2 2
+ 0.6 0 1 cbr 1000 ------- 2 0.0 2.0 3 3
- 0.6 0 1 cbr 1000 ------- 2 0.0 2.0 3 3
- 0.618 1 2 cbr 1000 ------- 2 0.0 2.0 2 2
r 0.623 1 2 cbr 1000 ------- 2 0.0 2.0 1 1
r 0.658 0 1 cbr 1000 ------- 2 0.0 2.0 3 3
+ 0.658 1 2 cbr 1000 ------- 2 0.0 2.0 3 3
+ 0.666667 0 1 cbr 1000 ------- 2 0.0 2.0 4 4
- 0.666667 0 1 cbr 1000 ------- 2 0.0 2.0 4 4
- 0.698 1 2 cbr 1000 ------- 2 0.0 2.0 3 3
r 0.703 1 2 cbr 1000 ------- 2 0.0 2.0 2 2
r 0.724667 0 1 cbr 1000 ------- 2 0.0 2.0 4 4
+ 0.724667 1 2 cbr 1000 ------- 2 0.0 2.0 4 4
+ 0.733333 0 1 cbr 1000 ------- 2 0.0 2.0 5 5
- 0.733333 0 1 cbr 1000 ------- 2 0.0 2.0 5 5
- 0.778 1 2 cbr 1000 ------- 2 0.0 2.0 4 4
r 0.783 1 2 cbr 1000 ------- 2 0.0 2.0 3 3
r 0.791333 0 1 cbr 1000 ------- 2 0.0 2.0 5 5
+ 0.791333 1 2 cbr 1000 ------- 2 0.0 2.0 5 5
+ 0.8 0 1 cbr 1000 ------- 2 0.0 2.0 6 6
- 0.8 0 1 cbr 1000 ------- 2 0.0 2.0 6 6
- 0.858 1 2 cbr 1000 ------- 2 0.0 2.0 5 5
r 0.858 0 1 cbr 1000 ------- 2 0.0 2.0 6 6
+ 0.858 1 2 cbr 1000 ------- 2 0.0 2.0 6 6
r 0.863 1 2 cbr 1000 ------- 2 0.0 2.0 4 4
+ 0.866667 0 1 cbr 1000 ------- 2 0.0 2.0 7 7
- 0.866667 0 1 cbr 1000 ------- 2 0.0 2.0 7 7
r 0.924667 0 1 cbr 1000 ------- 2 0.0 2.0 7 7
+ 0.924667 1 2 cbr 1000 ------- 2 0.0 2.0 7 7
+ 0.933333 0 1 cbr 1000 ------- 2 0.0 2.0 8 8
- 0.933333 0 1 cbr 1000 ------- 2 0.0 2.0 8 8
- 0.938 1 2 cbr 1000 ------- 2 0.0 2.0 6 6
r 0.943 1 2 cbr 1000 ------- 2 0.0 2.0 5 5
r 0.991333 0 1 cbr 1000 ------- 2 0.0 2.0 8 8
+ 0.991333 1 2 cbr 1000 ------- 2 0.0 2.0 8 8
+ 1 0 1 cbr 1000 ------- 2 0.0 2.0 9 9
- 1 0 1 cbr 1000 ------- 2 0.0 2.0 9 9
- 1.018 1 2 cbr 1000 ------- 2 0.0 2.0 7 7
r 1.023 1 2 cbr 1000 ------- 2 0.0 2.0 6 6
r 1.058 0 1 cbr 1000 ------- 2 0.0 2.0 9 9
+ 1.058 1 2 cbr 1000 ------- 2 0.0 2.0 9 9
+ 1.066667 0 1 cbr 1000 ------- 2 0.0 2.0 10 10
- 1.066667 0 1 cbr 1000 ------- 2 0.0 2.0 10 10
- 1.098 1 2 cbr 1000 ------- 2 0.0 2.0 8 8
r 1.103 1 2 cbr 1000 ------- 2 0.0 2.0 7 7
r 1.124667 0 1 cbr 1000 ------- 2 0.0 2.0 10 10
+ 1.124667 1 2 cbr 1000 ------- 2 0.0 2.0 10 10
+ 1.133333 0 1 cbr 1000 ------- 2 0.0 2.0 11 11
- 1.133333 0 1 cbr 1000 ------- 2 0.0 2.0 11 11
- 1.178 1 2 cbr 1000 ------- 2 0.0 2.0 9 9
r 1.183 1 2 cbr 1000 ------- 2 0.0 2.0 8 8
r 1.191333 0 1 cbr 1000 ------- 2 0.0 2.0 11 11
+ 1.191333 1 2 cbr 1000 ------- 2 0.0 2.0 11 11
+ 1.2 0 1 cbr 1000 ------- 2 0.0 2.0 12 12
- 1.2 0 1 cbr 1000 ------- 2 0.0 2.0 12 12
- 1.258 1 2 cbr 1000 ------- 2 0.0 2.0 10 10
r 1.258 0 1 cbr 1000 ------- 2 0.0 2.0 12 12
+ 1.258 1 2 cbr 1000 ------- 2 0.0 2.0 12 12
r 1.263 1 2 cbr 1000 ------- 2 0.0 2.0 9 9
+ 1.266667 0 1 cbr 1000 ------- 2 0.0 2.0 13 13
- 1.266667 0 1 cbr 1000 ------- 2 0.0 2.0 13 13
r 1.324667 0 1 cbr 1000 ------- 2 0.0 2.0 13 13
+ 1.324667 1 2 cbr 1000 ------- 2 0.0 2.0 13 13
+ 1.333333 0 1 cbr 1000 ------- 2 0.0 2.0 14 14
- 1.333333 0 1 cbr 1000 ------- 2 0.0 2.0 14 14
- 1.338 1 2 cbr 1000 ------- 2 0.0 2.0 11 11
r 1.343 1 2 cbr 1000 ------- 2 0.0 2.0 10 10
r 1.391333 0 1 cbr 1000 ------- 2 0.0 2.0 14 14
+ 1.391333 1 2 cbr 1000 ------- 2 0.0 2.0 14 14
+ 1.4 0 1 cbr 1000 ------- 2 0.0 2.0 15 15
- 1.4 0 1 cbr 1000 ------- 2 0.0 2.0 15 15
- 1.418 1 2 cbr 1000 ------- 2 0.0 2.0 12 12
r 1.423 1 2 cbr 1000 ------- 2 0.0 2.0 11 11
r 1.458 0 1 cbr 1000 ------- 2 0.0 2.0 15 15
+ 1.458 1 2 cbr 1000 ------- 2 0.0 2.0 15 15
+ 1.466667 0 1 cbr 1000 ------- 2 0.0 2.0 16 16
- 1.466667 0 1 cbr 1000 ------- 2 0.0 2.0 16 16
- 1.498 1 2 cbr 1000 ------- 2 0.0 2.0 13 13
r 1.503 1 2 cbr 1000 ------- 2 0.0 2.0 12 12
r 1.524667 0 1 cbr 1000 ------- 2 0.0 2.0 16 16
+ 1.524667 1 2 cbr 1000 ------- 2 0.0 2.0 16 16
+ 1.533333 0 1 cbr 1000 ------- 2 0.0 2.0 17 17
- 1.533333 0 1 cbr 1000 ------- 2 0.0 2.0 17 17
- 1.578 1 2 cbr 1000 ------- 2 0.0 2.0 14 14
r 1.583 1 2 cbr 1000 ------- 2 0.0 2.0 13 13
r 1.591333 0 1 cbr 1000 ------- 2 0.0 2.0 17 17
+ 1.591333 1 2 cbr 1000 ------- 2 0.0 2.0 17 17
+ 1.6 0 1 cbr 1000 ------- 2 0.0 2.0 18 18
- 1.6 0 1 cbr 1000 ------- 2 0.0 2.0 18 18
r 1.658 0 1 cbr 1000 ------- 2 0.0 2.0 18 18
+ 1.658 1 2 cbr 1000 ------- 2 0.0 2.0 18 18
- 1.658 1 2 cbr 1000 ------- 2 0.0 2.0 15 15
r 1.663 1 2 cbr 1000 ------- 2 0.0 2.0 14 14
+ 1.666667 0 1 cbr 1000 ------- 2 0.0 2.0 19 19
- 1.666667 0 1 cbr 1000 ------- 2 0.0 2.0 19 19
r 1.724667 0 1 cbr 1000 ------- 2 0.0 2.0 19 19
+ 1.724667 1 2 cbr 1000 ------- 2 0.0 2.0 19 19
+ 1.733333 0 1 cbr 1000 ------- 2 0.0 2.0 20 20
- 1.733333 0 1 cbr 1000 ------- 2 0.0 2.0 20 20
- 1.738 1 2 cbr 1000 ------- 2 0.0 2.0 16 16
r 1.743 1 2 cbr 1000 ------- 2 0.0 2.0 15 15
r 1.791333 0 1 cbr 1000 ------- 2 0.0 2.0 20 20
+ 1.791333 1 2 cbr 1000 ------- 2 0.0 2.0 20 20
+ 1.8 0 1 cbr 1000 ------- 2 0.0 2.0 21 21
- 1.8 0 1 cbr 1000 ------- 2 0.0 2.0 21 21
- 1.818 1 2 cbr 1000 ------- 2 0.0 2.0 17 17
r 1.823 1 2 cbr 1000 ------- 2 0.0 2.0 16 16
r 1.858 0 1 cbr 1000 ------- 2 0.0 2.0 21 21
+ 1.858 1 2 cbr 1000 ------- 2 0.0 2.0 21 21
+ 1.866667 0 1 cbr 1000 ------- 2 0.0 2.0 22 22
- 1.866667 0 1 cbr 1000 ------- 2 0.0 2.0 22 22
- 1.898 1 2 cbr 1000 ------- 2 0.0 2.0 18 18
r 1.903 1 2 cbr 1000 ------- 2 0.0 2.0 17 17
r 1.924667 0 1 cbr 1000 ------- 2 0.0 2.0 22 22
+ 1.924667 1 2 cbr 1000 ------- 2 0.0 2.0 22 22
+ 1.933333 0 1 cbr 1000 ------- 2 0.0 2.0 23 23
- 1.933333 0 1 cbr 1000 ------- 2 0.0 2.0 23 23
- 1.978 1 2 cbr 1000 ------- 2 0.0 2.0 19 19
r 1.983 1 2 cbr 1000 ------- 2 0.0 2.0 18 18
r 1.991333 0 1 cbr 1000 ------- 2 0.0 2.0 23 23
+ 1.991333 1 2 cbr 1000 ------- 2 0.0 2.0 23 23
+ 2 0 1 cbr 1000 ------- 2 0.0 2.0 24 24
- 2 0 1 cbr 1000 ------- 2 0.0 2.0 24 24
r 2.058 0 1 cbr 1000 ------- 2 0.0 2.0 24 24
+ 2.058 1 2 cbr 1000 ------- 2 0.0 2.0 24 24
- 2.058 1 2 cbr 1000 ------- 2 0.0 2.0 20 20
r 2.063 1 2 cbr 1000 ------- 2 0.0 2.0 19 19
+ 2.066667 0 1 cbr 1000 ------- 2 0.0 2.0 25 25
- 2.066667 0 1 cbr 1000 ------- 2 0.0 2.0 25 25
r 2.124667 0 1 cbr 1000 ------- 2 0.0 2.0 25 25
+ 2.124667 1 2 cbr 1000 ------- 2 0.0 2.0 25 25
+ 2.133333 0 1 cbr 1000 ------- 2 0.0 2.0 26 26
- 2.133333 0 1 cbr 1000 ------- 2 0.0 2.0 26 26
- 2.138 1 2 cbr 1000 ------- 2 0.0 2.0 21 21
r 2.143 1 2 cbr 1000 ------- 2 0.0 2.0 20 20
r 2.191333 0 1 cbr 1000 ------- 2 0.0 2.0 26 26
+ 2.191333 1 2 cbr 1000 ------- 2 0.0 2.0 26 26
+ 2.2 0 1 cbr 1000 ------- 2 0.0 2.0 27 27
- 2.2 0 1 cbr 1000 ------- 2 0.0 2.0 27 27
- 2.218 1 2 cbr 1000 ------- 2 0.0 2.0 22 22
r 2.223 1 2 cbr 1000 ------- 2 0.0 2.0 21 21
r 2.258 0 1 cbr 1000 ------- 2 0.0 2.0 27 27
+ 2.258 1 2 cbr 1000 ------- 2 0.0 2.0 27 27
+ 2.266667 0 1 cbr 1000 ------- 2 0.0 2.0 28 28
- 2.266667 0 1 cbr 1000 ------- 2 0.0 2.0 28 28
- 2.298 1 2 cbr 1000 ------- 2 0.0 2.0 23 23
r 2.303 1 2 cbr 1000 ------- 2 0.0 2.0 22 22
r 2.324667 0 1 cbr 1000 ------- 2 0.0 2.0 28 28
+ 2.324667 1 2 cbr 1000 ------- 2 0.0 2.0 28 28
+ 2.333333 0 1 cbr 1000 ------- 2 0.0 2.0 29 29
- 2.333333 0 1 cbr 1000 ------- 2 0.0 2.0 29 29
- 2.378 1 2 cbr 1000 ------- 2 0.0 2.0 24 24
r 2.383 1 2 cbr 1000 ------- 2 0.0 2.0 23 23
r 2.391333 0 1 cbr 1000 ------- 2 0.0 2.0 29 29
+ 2.391333 1 2 cbr 1000 ------- 2 0.0 2.0 29 29
+ 2.4 0 1 cbr 1000 ------- 2 0.0 2.0 30 30
- 2.4 0 1 cbr 1000 ------- 2 0.0 2.0 30 30
r 2.458 0 1 cbr 1000 ------- 2 0.0 2.0 30 30
+ 2.458 1 2 cbr 1000 ------- 2 0.0 2.0 30 30
- 2.458 1 2 cbr 1000 ------- 2 0.0 2.0 25 25
r 2.463 1 2 cbr 1000 ------- 2 0.0 2.0 24 24
+ 2.466667 0 1 cbr 1000 ------- 2 0.0 2.0 31 31
- 2.466667 0 1 cbr 1000 ------- 2 0.0 2.0 31 31
r 2.524667 0 1 cbr 1000 ------- 2 0.0 2.0 31 31
+ 2.524667 1 2 cbr 1000 ------- 2 0.0 2.0 31 31
+ 2.533333 0 1 cbr 1000 ------- 2 0.0 2.0 32 32
- 2.533333 0 1 cbr 1000 ------- 2 0.0 2.0 32 32
- 2.538 1 2 cbr 1000 ------- 2 0.0 2.0 26 26
r 2.543 1 2 cbr 1000 ------- 2 0.0 2.0 25 25
r 2.591333 0 1 cbr 1000 ------- 2 0.0 2.0 32 32
+ 2.591333 1 2 cbr 1000 ------- 2 0.0 2.0 32 32
+ 2.6 0 1 cbr 1000 ------- 2 0.0 2.0 33 33
- 2.6 0 1 cbr 1000 ------- 2 0.0 2.0 33 33
- 2.618 1 2 cbr 1000 ------- 2 0.0 2.0 27 27
r 2.623 1 2 cbr 1000 ------- 2 0.0 2.0 26 26
r 2.658 0 1 cbr 1000 ------- 2 0.0 2.0 33 33
+ 2.658 1 2 cbr 1000 ------- 2 0.0 2.0 33 33
+ 2.666667 0 1 cbr 1000 ------- 2 0.0 2.0 34 34
- 2.666667 0 1 cbr 1000 ------- 2 0.0 2.0 34 34
- 2.698 1 2 cbr 1000 ------- 2 0.0 2.0 28 28
r 2.703 1 2 cbr 1000 ------- 2 0.0 2.0 27 27
r 2.724667 0 1 cbr 1000 ------- 2 0.0 2.0 34 34
+ 2.724667 1 2 cbr 1000 ------- 2 0.0 2.0 34 34
+ 2.733333 0 1 cbr 1000 ------- 2 0.0 2.0 35 35
- 2.733333 0 1 cbr 1000 ------- 2 0.0 2.0 35 35
- 2.778 1 2 cbr 1000 ------- 2 0.0 2.0 29 29
r 2.783 1 2 cbr 1000 ------- 2 0.0 2.0 28 28
r 2.791333 0 1 cbr 1000 ------- 2 0.0 2.0 35 35
+ 2.791333 1 2 cbr 1000 ------- 2 0.0 2.0 35 35
+ 2.8 0 1 cbr 1000 ------- 2 0.0 2.0 36 36
- 2.8 0 1 cbr 1000 ------- 2 0.0 2.0 36 36
- 2.858 1 2 cbr 1000 ------- 2 0.0 2.0 30 30
r 2.858 0 1 cbr 1000 ------- 2 0.0 2.0 36 36
+ 2.858 1 2 cbr 1000 ------- 2 0.0 2.0 36 36
r 2.863 1 2 cbr 1000 ------- 2 0.0 2.0 29 29
+ 2.866667 0 1 cbr 1000 ------- 2 0.0 2.0 37 37
- 2.866667 0 1 cbr 1000 ------- 2 0.0 2.0 37 37
r 2.924667 0 1 cbr 1000 ------- 2 0.0 2.0 37 37
+ 2.924667 1 2 cbr 1000 ------- 2 0.0 2.0 37 37
+ 2.933333 0 1 cbr 1000 ------- 2 0.0 2.0 38 38
- 2.933333 0 1 cbr 1000 ------- 2 0.0 2.0 38 38
- 2.938 1 2 cbr 1000 ------- 2 0.0 2.0 31 31
r 2.943 1 2 cbr 1000 ------- 2 0.0 2.0 30 30
r 2.991333 0 1 cbr 1000 ------- 2 0.0 2.0 38 38
+ 2.991333 1 2 cbr 1000 ------- 2 0.0 2.0 38 38
+ 3 0 1 cbr 1000 ------- 2 0.0 2.0 39 39
- 3 0 1 cbr 1000 ------- 2 0.0 2.0 39 39
- 3.018 1 2 cbr 1000 ------- 2 0.0 2.0 32 32
r 3.023 1 2 cbr 1000 ------- 2 0.0 2.0 31 31
r 3.058 0 1 cbr 1000 ------- 2 0.0 2.0 39 39
+ 3.058 1 2 cbr 1000 ------- 2 0.0 2.0 39 39
+ 3.066667 0 1 cbr 1000 ------- 2 0.0 2.0 40 40
- 3.066667 0 1 cbr 1000 ------- 2 0.0 2.0 40 40
- 3.098 1 2 cbr 1000 ------- 2 0.0 2.0 33 33
r 3.103 1 2 cbr 1000 ------- 2 0.0 2.0 32 32
r 3.124667 0 1 cbr 1000 ------- 2 0.0 2.0 40 40
+ 3.124667 1 2 cbr 1000 ------- 2 0.0 2.0 40 40
+ 3.133333 0 1 cbr 1000 ------- 2 0.0 2.0 41 41
- 3.133333 0 1 cbr 1000 ------- 2 0.0 2.0 41 41
- 3.178 1 2 cbr 1000 ------- 2 0.0 2.0 34 34
r 3.183 1 2 cbr 1000 ------- 2 0.0 2.0 33 33
r 3.191333 0 1 cbr 1000 ------- 2 0.0 2.0 41 41
+ 3.191333 1 2 cbr 1000 ------- 2 0.0 2.0 41 41
+ 3.2 0 1 cbr 1000 ------- 2 0.0 2.0 42 42
- 3.2 0 1 cbr 1000 ------- 2 0.0 2.0 42 42
- 3.258 1 2 cbr 1000 ------- 2 0.0 2.0 35 35
r 3.258 0 1 cbr 1000 ------- 2 0.0 2.0 42 42
+ 3.258 1 2 cbr 1000 ------- 2 0.0 2.0 42 42
r 3.263 1 2 cbr 1000 ------- 2 0.0 2.0 34 34
+ 3.266667 0 1 cbr 1000 ------- 2 0.0 2.0 43 43
- 3.266667 0 1 cbr 1000 ------- 2 0.0 2.0 43 43
r 3.324667 0 1 cbr 1000 ------- 2 0.0 2.0 43 43
+ 3.324667 1 2 cbr 1000 ------- 2 0.0 2.0 43 43
+ 3.333333 0 1 cbr 1000 ------- 2 0.0 2.0 44 44
- 3.333333 0 1 cbr 1000 ------- 2 0.0 2.0 44 44
- 3.338 1 2 cbr 1000 ------- 2 0.0 2.0 36 36
r 3.343 1 2 cbr 1000 ------- 2 0.0 2.0 35 35
r 3.391333 0 1 cbr 1000 ------- 2 0.0 2.0 44 44
+ 3.391333 1 2 cbr 1000 ------- 2 0.0 2.0 44 44
+ 3.4 0 1 cbr 1000 ------- 2 0.0 2.0 45 45
- 3.4 0 1 cbr 1000 ------- 2 0.0 2.0 45 45
- 3.418 1 2 cbr 1000 ------- 2 0.0 2.0 37 37
r 3.423 1 2 cbr 1000 ------- 2 0.0 2.0 36 36
r 3.458 0 1 cbr 1000 ------- 2 0.0 2.0 45 45
+ 3.458 1 2 cbr 1000 ------- 2 0.0 2.0 45 45
+ 3.466667 0 1 cbr 1000 ------- 2 0.0 2.0 46 46
- 3.466667 0 1 cbr 1000 ------- 2 0.0 2.0 46 46
- 3.498 1 2 cbr 1000 ------- 2 0.0 2.0 38 38
r 3.503 1 2 cbr 1000 ------- 2 0.0 2.0 37 37
r 3.524667 0 1 cbr 1000 ------- 2 0.0 2.0 46 46
+ 3.524667 1 2 cbr 1000 ------- 2 0.0 2.0 46 46
+ 3.533333 0 1 cbr 1000 ------- 2 0.0 2.0 47 47
- 3.533333 0 1 cbr 1000 ------- 2 0.0 2.0 47 47
- 3.578 1 2 cbr 1000 ------- 2 0.0 2.0 39 39
r 3.583 1 2 cbr 1000 ------- 2 0.0 2.0 38 38
r 3.591333 0 1 cbr 1000 ------- 2 0.0 2.0 47 47
+ 3.591333 1 2 cbr 1000 ------- 2 0.0 2.0 47 47
+ 3.6 0 1 cbr 1000 ------- 2 0.0 2.0 48 48
- 3.6 0 1 cbr 1000 ------- 2 0.0 2.0 48 48
- 3.658 1 2 cbr 1000 ------- 2 0.0 2.0 40 40
r 3.658 0 1 cbr 1000 ------- 2 0.0 2.0 48 48
+ 3.658 1 2 cbr 1000 ------- 2 0.0 2.0 48 48
r 3.663 1 2 cbr 1000 ------- 2 0.0 2.0 39 39
+ 3.666667 0 1 cbr 1000 ------- 2 0.0 2.0 49 49
- 3.666667 0 1 cbr 1000 ------- 2 0.0 2.0 49 49
r 3.724667 0 1 cbr 1000 ------- 2 0.0 2.0 49 49
+ 3.724667 1 2 cbr 1000 ------- 2 0.0 2.0 49 49
+ 3.733333 0 1 cbr 1000 ------- 2 0.0 2.0 50 50
- 3.733333 0 1 cbr 1000 ------- 2 0.0 2.0 50 50
- 3.738 1 2 cbr 1000 ------- 2 0.0 2.0 41 41
r 3.743 1 2 cbr 1000 ------- 2 0.0 2.0 40 40
r 3.791333 0 1 cbr 1000 ------- 2 0.0 2.0 50 50
+ 3.791333 1 2 cbr 1000 ------- 2 0.0 2.0 50 50
+ 3.8 0 1 cbr 1000 ------- 2 0.0 2.0 51 51
- 3.8 0 1 cbr 1000 ------- 2 0.0 2.0 51 51
- 3.818 1 2 cbr 1000 ------- 2 0.0 2.0 42 42
r 3.823 1 2 cbr 1000 ------- 2 0.0 2.0 41 41
r 3.858 0 1 cbr 1000 ------- 2 0.0 2.0 51 51
+ 3.858 1 2 cbr 1000 ------- 2 0.0 2.0 51 51
+ 3.866667 0 1 cbr 1000 ------- 2 0.0 2.0 52 52
- 3.866667 0 1 cbr 1000 ------- 2 0.0 2.0 52 52
- 3.898 1 2 cbr 1000 ------- 2 0.0 2.0 43 43
r 3.903 1 2 cbr 1000 ------- 2 0.0 2.0 42 42
r 3.924667 0 1 cbr 1000 ------- 2 0.0 2.0 52 52
+ 3.924667 1 2 cbr 1000 ------- 2 0.0 2.0 52 52
+ 3.933333 0 1 cbr 1000 ------- 2 0.0 2.0 53 53
- 3.933333 0 1 cbr 1000 ------- 2 0.0 2.0 53 53
- 3.978 1 2 cbr 1000 ------- 2 0.0 2.0 44 44
r 3.983 1 2 cbr 1000 ------- 2 0.0 2.0 43 43
r 3.991333 0 1 cbr 1000 ------- 2 0.0 2.0 53 53
+ 3.991333 1 2 cbr 1000 ------- 2 0.0 2.0 53 53
+ 4 0 1 cbr 1000 ------- 2 0.0 2.0 54 54
- 4 0 1 cbr 1000 ------- 2 0.0 2.0 54 54
- 4.058 1 2 cbr 1000 ------- 2 0.0 2.0 45 45
r 4.058 0 1 cbr 1000 ------- 2 0.0 2.0 54 54
+ 4.058 1 2 cbr 1000 ------- 2 0.0 2.0 54 54
r 4.063 1 2 cbr 1000 ------- 2 0.0 2.0 44 44
+ 4.066667 0 1 cbr 1000 ------- 2 0.0 2.0 55 55
- 4.066667 0 1 cbr 1000 ------- 2 0.0 2.0 55 55
r 4.124667 0 1 cbr 1000 ------- 2 0.0 2.0 55 55
+ 4.124667 1 2 cbr 1000 ------- 2 0.0 2.0 55 55
d 4.124667 1 2 cbr 1000 ------- 2 0.0 2.0 55 55
+ 4.133333 0 1 cbr 1000 ------- 2 0.0 2.0 56 56
- 4.133333 0 1 cbr 1000 ------- 2 0.0 2.0 56 56
- 4.138 1 2 cbr 1000 ------- 2 0.0 2.0 46 46
r 4.143 1 2 cbr 1000 ------- 2 0.0 2.0 45 45
r 4.191333 0 1 cbr 1000 ------- 2 0.0 2.0 56 56
+ 4.191333 1 2 cbr 1000 ------- 2 0.0 2.0 56 56
+ 4.2 0 1 cbr 1000 ------- 2 0.0 2.0 57 57
- 4.2 0 1 cbr 1000 ------- 2 0.0 2.0 57 57
- 4.218 1 2 cbr 1000 ------- 2 0.0 2.0 47 47
r 4.223 1 2 cbr 1000 ------- 2 0.0 2.0 46 46
r 4.258 0 1 cbr 1000 ------- 2 0.0 2.0 57 57
+ 4.258 1 2 cbr 1000 ------- 2 0.0 2.0 57 57
+ 4.266667 0 1 cbr 1000 ------- 2 0.0 2.0 58 58
- 4.266667 0 1 cbr 1000 ------- 2 0.0 2.0 58 58
- 4.298 1 2 cbr 1000 ------- 2 0.0 2.0 48 48
r 4.303 1 2 cbr 1000 ------- 2 0.0 2.0 47 47
r 4.324667 0 1 cbr 1000 ------- 2 0.0 2.0 58 58
+ 4.324667 1 2 cbr 1000 ------- 2 0.0 2.0 58 58
+ 4.333333 0 1 cbr 1000 ------- 2 0.0 2.0 59 59
- 4.333333 0 1 cbr 1000 ------- 2 0.0 2.0 59 59
- 4.378 1 2 cbr 1000 ------- 2 0.0 2.0 49 49
r 4.383 1 2 cbr 1000 ------- 2 0.0 2.0 48 48
r 4.391333 0 1 cbr 1000 ------- 2 0.0 2.0 59 59
+ 4.391333 1 2 cbr 1000 ------- 2 0.0 2.0 59 59
+ 4.4 0 1 cbr 1000 ------- 2 0.0 2.0 60 60
- 4.4 0 1 cbr 1000 ------- 2 0.0 2.0 60 60
- 4.458 1 2 cbr 1000 ------- 2 0.0 2.0 50 50
r 4.458 0 1 cbr 1000 ------- 2 0.0 2.0 60 60
+ 4.458 1 2 cbr 1000 ------- 2 0.0 2.0 60 60
r 4.463 1 2 cbr 1000 ------- 2 0.0 2.0 49 49
+ 4.466667 0 1 cbr 1000 ------- 2 0.0 2.0 61 61
- 4.466667 0 1 cbr 1000 ------- 2 0.0 2.0 61 61
r 4.524667 0 1 cbr 1000 ------- 2 0.0 2.0 61 61
+ 4.524667 1 2 cbr 1000 ------- 2 0.0 2.0 61 61
d 4.524667 1 2 cbr 1000 ------- 2 0.0 2.0 61 61
+ 4.533333 0 1 cbr 1000 ------- 2 0.0 2.0 62 62
- 4.533333 0 1 cbr 1000 ------- 2 0.0 2.0 62 62
- 4.538 1 2 cbr 1000 ------- 2 0.0 2.0 51 51
r 4.543 1 2 cbr 1000 ------- 2 0.0 2.0 50 50
r 4.591333 0 1 cbr 1000 ------- 2 0.0 2.0 62 62
+ 4.591333 1 2 cbr 1000 ------- 2 0.0 2.0 62 62
+ 4.6 0 1 cbr 1000 ------- 2 0.0 2.0 63 63
- 4.6 0 1 cbr 1000 ------- 2 0.0 2.0 63 63
- 4.618 1 2 cbr 1000 ------- 2 0.0 2.0 52 52
r 4.623 1 2 cbr 1000 ------- 2 0.0 2.0 51 51
r 4.658 0 1 cbr 1000 ------- 2 0.0 2.0 63 63
+ 4.658 1 2 cbr 1000 ------- 2 0.0 2.0 63 63
+ 4.666667 0 1 cbr 1000 ------- 2 0.0 2.0 64 64
- 4.666667 0 1 cbr 1000 ------- 2 0.0 2.0 64 64
- 4.698 1 2 cbr 1000 ------- 2 0.0 2.0 53 53
r 4.703 1 2 cbr 1000 ------- 2 0.0 2.0 52 52
r 4.724667 0 1 cbr 1000 ------- 2 0.0 2.0 64 64
+ 4.724667 1 2 cbr 1000 ------- 2 0.0 2.0 64 64
+ 4.733333 0 1 cbr 1000 ------- 2 0.0 2.0 65 65
- 4.733333 0 1 cbr 1000 ------- 2 0.0 2.0 65 65
- 4.778 1 2 cbr 1000 ------- 2 0.0 2.0 54 54
r 4.783 1 2 cbr 1000 ------- 2 0.0 2.0 53 53
r 4.791333 0 1 cbr 1000 ------- 2 0.0 2.0 65 65
+ 4.791333 1 2 cbr 1000 ------- 2 0.0 2.0 65 65
- 4.858 1 2 cbr 1000 ------- 2 0.0 2.0 56 56
r 4.863 1 2 cbr 1000 ------- 2 0.0 2.0 54 54
- 4.938 1 2 cbr 1000 ------- 2 0.0 2.0 57 57
r 4.943 1 2 cbr 1000 ------- 2 0.0 2.0 56 56
