+ 0.4 0 1 cbr 1000 ------- 2 0.0 2.0 0 0
- 0.4 0 1 cbr 1000 ------- 2 0.0 2.0 0 0
+ 0.45 0 1 cbr 1000 ------- 2 0.0 2.0 1 1
- 0.45 0 1 cbr 1000 ------- 2 0.0 2.0 1 1
r 0.458 0 1 cbr 1000 ------- 2 0.0 2.0 0 0
+ 0.458 1 2 cbr 1000 ------- 2 0.0 2.0 0 0
- 0.458 1 2 cbr 1000 ------- 2 0.0 2.0 0 0
+ 0.5 0 1 cbr 1000 ------- 2 0.0 2.0 2 2
- 0.5 0 1 cbr 1000 ------- 2 0.0 2.0 2 2
r 0.508 0 1 cbr 1000 ------- 2 0.0 2.0 1 1
+ 0.508 1 2 cbr 1000 ------- 2 0.0 2.0 1 1
- 0.538 1 2 cbr 1000 ------- 2 0.0 2.0 1 1
r 0.543 1 2 cbr 1000 ------- 2 0.0 2.0 0 0
+ 0.55 0 1 cbr 1000 ------- 2 0.0 2.0 3 3
- 0.55 0 1 cbr 1000 ------- 2 0.0 2.0 3 3
r 0.558 0 1 cbr 1000 ------- 2 0.0 2.0 2 2
+ 0.558 1 2 cbr 1000 ------- 2 0.0 2.0 2 2
+ 0.6 0 1 cbr 1000 ------- 2 0.0 2.0 4 4
- 0.6 0 1 cbr 1000 ------- 2 0.0 2.0 4 4
r 0.608 0 1 cbr 1000 ------- 2 0.0 2.0 3 3
+ 0.608 1 2 cbr 1000 ------- 2 0.0 2.0 3 3
- 0.618 1 2 cbr 1000 ------- 2 0.0 2.0 2 2
r 0.623 1 2 cbr 1000 ------- 2 0.0 2.0 1 1
+ 0.65 0 1 cbr 1000 ------- 2 0.0 2.0 5 5
- 0.65 0 1 cbr 1000 ------- 2 0.0 2.0 5 5
r 0.658 0 1 cbr 1000 ------- 2 0.0 2.0 4 4
+ 0.658 1 2 cbr 1000 ------- 2 0.0 2.0 4 4
- 0.698 1 2 cbr 1000 ------- 2 0.0 2.0 3 3
+ 0.7 0 1 cbr 1000 ------- 2 0.0 2.0 6 6
- 0.7 0 1 cbr 1000 ------- 2 0.0 2.0 6 6
r 0.703 1 2 cbr 1000 ------- 2 0.0 2.0 2 2
r 0.708 0 1 cbr 1000 ------- 2 0.0 2.0 5 5
+ 0.708 1 2 cbr 1000 ------- 2 0.0 2.0 5 5
+ 0.75 0 1 cbr 1000 ------- 2 0.0 2.0 7 7
- 0.75 0 1 cbr 1000 ------- 2 0.0 2.0 7 7
r 0.758 0 1 cbr 1000 ------- 2 0.0 2.0 6 6
+ 0.758 1 2 cbr 1000 ------- 2 0.0 2.0 6 6
- 0.778 1 2 cbr 1000 ------- 2 0.0 2.0 4 4
r 0.783 1 2 cbr 1000 ------- 2 0.0 2.0 3 3
+ 0.8 0 1 cbr 1000 ------- 2 0.0 2.0 8 8
- 0.8 0 1 cbr 1000 ------- 2 0.0 2.0 8 8
r 0.808 0 1 cbr 1000 ------- 2 0.0 2.0 7 7
+ 0.808 1 2 cbr 1000 ------- 2 0.0 2.0 7 7
+ 0.85 0 1 cbr 1000 ------- 2 0.0 2.0 9 9
- 0.85 0 1 cbr 1000 ------- 2 0.0 2.0 9 9
- 0.858 1 2 cbr 1000 ------- 2 0.0 2.0 5 5
r 0.858 0 1 cbr 1000 ------- 2 0.0 2.0 8 8
+ 0.858 1 2 cbr 1000 ------- 2 0.0 2.0 8 8
r 0.863 1 2 cbr 1000 ------- 2 0.0 2.0 4 4
+ 0.9 0 1 cbr 1000 ------- 2 0.0 2.0 10 10
- 0.9 0 1 cbr 1000 ------- 2 0.0 2.0 10 10
r 0.908 0 1 cbr 1000 ------- 2 0.0 2.0 9 9
+ 0.908 1 2 cbr 1000 ------- 2 0.0 2.0 9 9
- 0.938 1 2 cbr 1000 ------- 2 0.0 2.0 6 6
r 0.943 1 2 cbr 1000 ------- 2 0.0 2.0 5 5
+ 0.95 0 1 cbr 1000 ------- 2 0.0 2.0 11 11
- 0.95 0 1 cbr 1000 ------- 2 0.0 2.0 11 11
r 0.958 0 1 cbr 1000 ------- 2 0.0 2.0 10 10
+ 0.958 1 2 cbr 1000 ------- 2 0.0 2.0 10 10
+ 1 0 1 cbr 1000 ------- 2 0.0 2.0 12 12
- 1 0 1 cbr 1000 ------- 2 0.0 2.0 12 12
r 1.008 0 1 cbr 1000 ------- 2 0.0 2.0 11 11
+ 1.008 1 2 cbr 1000 ------- 2 0.0 2.0 11 11
- 1.018 1 2 cbr 1000 ------- 2 0.0 2.0 7 7
r 1.023 1 2 cbr 1000 ------- 2 0.0 2.0 6 6
+ 1.05 0 1 cbr 1000 ------- 2 0.0 2.0 13 13
- 1.05 0 1 cbr 1000 ------- 2 0.0 2.0 13 13
r 1.058 0 1 cbr 1000 ------- 2 0.0 2.0 12 12
+ 1.058 1 2 cbr 1000 ------- 2 0.0 2.0 12 12
- 1.098 1 2 cbr 1000 ------- 2 0.0 2.0 8 8
+ 1.1 0 1 cbr 1000 ------- 2 0.0 2.0 14 14
- 1.1 0 1 cbr 1000 ------- 2 0.0 2.0 14 14
r 1.103 1 2 cbr 1000 ------- 2 0.0 2.0 7 7
r 1.108 0 1 cbr 1000 ------- 2 0.0 2.0 13 13
+ 1.108 1 2 cbr 1000 ------- 2 0.0 2.0 13 13
+ 1.15 0 1 cbr 1000 ------- 2 0.0 2.0 15 15
- 1.15 0 1 cbr 1000 ------- 2 0.0 2.0 15 15
r 1.158 0 1 cbr 1000 ------- 2 0.0 2.0 14 14
+ 1.158 1 2 cbr 1000 ------- 2 0.0 2.0 14 14
- 1.178 1 2 cbr 1000 ------- 2 0.0 2.0 9 9
r 1.183 1 2 cbr 1000 ------- 2 0.0 2.0 8 8
+ 1.2 0 1 cbr 1000 ------- 2 0.0 2.0 16 16
- 1.2 0 1 cbr 1000 ------- 2 0.0 2.0 16 16
r 1.208 0 1 cbr 1000 ------- 2 0.0 2.0 15 15
+ 1.208 1 2 cbr 1000 ------- 2 0.0 2.0 15 15
+ 1.25 0 1 cbr 1000 ------- 2 0.0 2.0 17 17
- 1.25 0 1 cbr 1000 ------- 2 0.0 2.0 17 17
- 1.258 1 2 cbr 1000 ------- 2 0.0 2.0 10 10
r 1.258 0 1 cbr 1000 ------- 2 0.0 2.0 16 16
+ 1.258 1 2 cbr 1000 ------- 2 0.0 2.0 16 16
r 1.263 1 2 cbr 1000 ------- 2 0.0 2.0 9 9
+ 1.3 0 1 cbr 1000 ------- 2 0.0 2.0 18 18
- 1.3 0 1 cbr 1000 ------- 2 0.0 2.0 18 18
r 1.308 0 1 cbr 1000 ------- 2 0.0 2.0 17 17
+ 1.308 1 2 cbr 1000 ------- 2 0.0 2.0 17 17
- 1.338 1 2 cbr 1000 ------- 2 0.0 2.0 11 11
r 1.343 1 2 cbr 1000 ------- 2 0.0 2.0 10 10
+ 1.35 0 1 cbr 1000 ------- 2 0.0 2.0 19 19
- 1.35 0 1 cbr 1000 ------- 2 0.0 2.0 19 19
r 1.358 0 1 cbr 1000 ------- 2 0.0 2.0 18 18
+ 1.358 1 2 cbr 1000 ------- 2 0.0 2.0 18 18
+ 1.4 0 1 cbr 1000 ------- 2 0.0 2.0 20 20
- 1.4 0 1 cbr 1000 ------- 2 0.0 2.0 20 20
r 1.408 0 1 cbr 1000 ------- 2 0.0 2.0 19 19
+ 1.408 1 2 cbr 1000 ------- 2 0.0 2.0 19 19
- 1.418 1 2 cbr 1000 ------- 2 0.0 2.0 12 12
r 1.423 1 2 cbr 1000 ------- 2 0.0 2.0 11 11
+ 1.45 0 1 cbr 1000 ------- 2 0.0 2.0 21 21
- 1.45 0 1 cbr 1000 ------- 2 0.0 2.0 21 21
r 1.458 0 1 cbr 1000 ------- 2 0.0 2.0 20 20
+ 1.458 1 2 cbr 1000 ------- 2 0.0 2.0 20 20
- 1.498 1 2 cbr 1000 ------- 2 0.0 2.0 13 13
+ 1.5 0 1 cbr 1000 ------- 2 0.0 2.0 22 22
- 1.5 0 1 cbr 1000 ------- 2 0.0 2.0 22 22
r 1.503 1 2 cbr 1000 ------- 2 0.0 2.0 12 12
r 1.508 0 1 cbr 1000 ------- 2 0.0 2.0 21 21
+ 1.508 1 2 cbr 1000 ------- 2 0.0 2.0 21 21
+ 1.55 0 1 cbr 1000 ------- 2 0.0 2.0 23 23
- 1.55 0 1 cbr 1000 ------- 2 0.0 2.0 23 23
r 1.558 0 1 cbr 1000 ------- 2 0.0 2.0 22 22
+ 1.558 1 2 cbr 1000 ------- 2 0.0 2.0 22 22
- 1.578 1 2 cbr 1000 ------- 2 0.0 2.0 14 14
r 1.583 1 2 cbr 1000 ------- 2 0.0 2.0 13 13
+ 1.6 0 1 cbr 1000 ------- 2 0.0 2.0 24 24
- 1.6 0 1 cbr 1000 ------- 2 0.0 2.0 24 24
r 1.608 0 1 cbr 1000 ------- 2 0.0 2.0 23 23
+ 1.608 1 2 cbr 1000 ------- 2 0.0 2.0 23 23
+ 1.65 0 1 cbr 1000 ------- 2 0.0 2.0 25 25
- 1.65 0 1 cbr 1000 ------- 2 0.0 2.0 25 25
- 1.658 1 2 cbr 1000 ------- 2 0.0 2.0 15 15
r 1.658 0 1 cbr 1000 ------- 2 0.0 2.0 24 24
+ 1.658 1 2 cbr 1000 ------- 2 0.0 2.0 24 24
r 1.663 1 2 cbr 1000 ------- 2 0.0 2.0 14 14
+ 1.7 0 1 cbr 1000 ------- 2 0.0 2.0 26 26
- 1.7 0 1 cbr 1000 ------- 2 0.0 2.0 26 26
r 1.708 0 1 cbr 1000 ------- 2 0.0 2.0 25 25
+ 1.708 1 2 cbr 1000 ------- 2 0.0 2.0 25 25
d 1.708 1 2 cbr 1000 ------- 2 0.0 2.0 25 25
- 1.738 1 2 cbr 1000 ------- 2 0.0 2.0 16 16
r 1.743 1 2 cbr 1000 ------- 2 0.0 2.0 15 15
+ 1.75 0 1 cbr 1000 ------- 2 0.0 2.0 27 27
- 1.75 0 1 cbr 1000 ------- 2 0.0 2.0 27 27
r 1.758 0 1 cbr 1000 ------- 2 0.0 2.0 26 26
+ 1.758 1 2 cbr 1000 ------- 2 0.0 2.0 26 26
+ 1.8 0 1 cbr 1000 ------- 2 0.0 2.0 28 28
- 1.8 0 1 cbr 1000 ------- 2 0.0 2.0 28 28
r 1.808 0 1 cbr 1000 ------- 2 0.0 2.0 27 27
+ 1.808 1 2 cbr 1000 ------- 2 0.0 2.0 27 27
d 1.808 1 2 cbr 1000 ------- 2 0.0 2.0 27 27
- 1.818 1 2 cbr 1000 ------- 2 0.0 2.0 17 17
r 1.823 1 2 cbr 1000 ------- 2 0.0 2.0 16 16
+ 1.85 0 1 cbr 1000 ------- 2 0.0 2.0 29 29
- 1.85 0 1 cbr 1000 ------- 2 0.0 2.0 29 29
r 1.858 0 1 cbr 1000 ------- 2 0.0 2.0 28 28
+ 1.858 1 2 cbr 1000 ------- 2 0.0 2.0 28 28
- 1.898 1 2 cbr 1000 ------- 2 0.0 2.0 18 18
+ 1.9 0 1 cbr 1000 ------- 2 0.0 2.0 30 30
- 1.9 0 1 cbr 1000 ------- 2 0.0 2.0 30 30
r 1.903 1 2 cbr 1000 ------- 2 0.0 2.0 17 17
r 1.908 0 1 cbr 1000 ------- 2 0.0 2.0 29 29
+ 1.908 1 2 cbr 1000 ------- 2 0.0 2.0 29 29
+ 1.95 0 1 cbr 1000 ------- 2 0.0 2.0 31 31
- 1.95 0 1 cbr 1000 ------- 2 0.0 2.0 31 31
r 1.958 0 1 cbr 1000 ------- 2 0.0 2.0 30 30
+ 1.958 1 2 cbr 1000 ------- 2 0.0 2.0 30 30
d 1.958 1 2 cbr 1000 ------- 2 0.0 2.0 30 30
- 1.978 1 2 cbr 1000 ------- 2 0.0 2.0 19 19
r 1.983 1 2 cbr 1000 ------- 2 0.0 2.0 18 18
+ 2 0 1 cbr 1000 ------- 2 0.0 2.0 32 32
- 2 0 1 cbr 1000 ------- 2 0.0 2.0 32 32
r 2.008 0 1 cbr 1000 ------- 2 0.0 2.0 31 31
+ 2.008 1 2 cbr 1000 ------- 2 0.0 2.0 31 31
+ 2.05 0 1 cbr 1000 ------- 2 0.0 2.0 33 33
- 2.05 0 1 cbr 1000 ------- 2 0.0 2.0 33 33
- 2.058 1 2 cbr 1000 ------- 2 0.0 2.0 20 20
r 2.058 0 1 cbr 1000 ------- 2 0.0 2.0 32 32
+ 2.058 1 2 cbr 1000 ------- 2 0.0 2.0 32 32
r 2.063 1 2 cbr 1000 ------- 2 0.0 2.0 19 19
+ 2.1 0 1 cbr 1000 ------- 2 0.0 2.0 34 34
- 2.1 0 1 cbr 1000 ------- 2 0.0 2.0 34 34
r 2.108 0 1 cbr 1000 ------- 2 0.0 2.0 33 33
+ 2.108 1 2 cbr 1000 ------- 2 0.0 2.0 33 33
d 2.108 1 2 cbr 1000 ------- 2 0.0 2.0 33 33
- 2.138 1 2 cbr 1000 ------- 2 0.0 2.0 21 21
r 2.143 1 2 cbr 1000 ------- 2 0.0 2.0 20 20
+ 2.15 0 1 cbr 1000 ------- 2 0.0 2.0 35 35
- 2.15 0 1 cbr 1000 ------- 2 0.0 2.0 35 35
r 2.158 0 1 cbr 1000 ------- 2 0.0 2.0 34 34
+ 2.158 1 2 cbr 1000 ------- 2 0.0 2.0 34 34
+ 2.2 0 1 cbr 1000 ------- 2 0.0 2.0 36 36
- 2.2 0 1 cbr 1000 ------- 2 0.0 2.0 36 36
r 2.208 0 1 cbr 1000 ------- 2 0.0 2.0 35 35
+ 2.208 1 2 cbr 1000 ------- 2 0.0 2.0 35 35
d 2.208 1 2 cbr 1000 ------- 2 0.0 2.0 35 35
- 2.218 1 2 cbr 1000 ------- 2 0.0 2.0 22 22
r 2.223 1 2 cbr 1000 ------- 2 0.0 2.0 21 21
+ 2.25 0 1 cbr 1000 ------- 2 0.0 2.0 37 37
- 2.25 0 1 cbr 1000 ------- 2 0.0 2.0 37 37
r 2.258 0 1 cbr 1000 ------- 2 0.0 2.0 36 36
+ 2.258 1 2 cbr 1000 ------- 2 0.0 2.0 36 36
- 2.298 1 2 cbr 1000 ------- 2 0.0 2.0 23 23
+ 2.3 0 1 cbr 1000 ------- 2 0.0 2.0 38 38
- 2.3 0 1 cbr 1000 ------- 2 0.0 2.0 38 38
r 2.303 1 2 cbr 1000 ------- 2 0.0 2.0 22 22
r 2.308 0 1 cbr 1000 ------- 2 0.0 2.0 37 37
+ 2.308 1 2 cbr 1000 ------- 2 0.0 2.0 37 37
+ 2.35 0 1 cbr 1000 ------- 2 0.0 2.0 39 39
- 2.35 0 1 cbr 1000 ------- 2 0.0 2.0 39 39
r 2.358 0 1 cbr 1000 ------- 2 0.0 2.0 38 38
+ 2.358 1 2 cbr 1000 ------- 2 0.0 2.0 38 38
d 2.358 1 2 cbr 1000 ------- 2 0.0 2.0 38 38
- 2.378 1 2 cbr 1000 ------- 2 0.0 2.0 24 24
r 2.383 1 2 cbr 1000 ------- 2 0.0 2.0 23 23
+ 2.4 0 1 cbr 1000 ------- 2 0.0 2.0 40 40
- 2.4 0 1 cbr 1000 ------- 2 0.0 2.0 40 40
r 2.408 0 1 cbr 1000 ------- 2 0.0 2.0 39 39
+ 2.408 1 2 cbr 1000 ------- 2 0.0 2.0 39 39
+ 2.45 0 1 cbr 1000 ------- 2 0.0 2.0 41 41
- 2.45 0 1 cbr 1000 ------- 2 0.0 2.0 41 41
r 2.458 0 1 cbr 1000 ------- 2 0.0 2.0 40 40
+ 2.458 1 2 cbr 1000 ------- 2 0.0 2.0 40 40
d 2.458 1 2 cbr 1000 ------- 2 0.0 2.0 40 40
- 2.458 1 2 cbr 1000 ------- 2 0.0 2.0 26 26
r 2.463 1 2 cbr 1000 ------- 2 0.0 2.0 24 24
+ 2.5 0 1 cbr 1000 ------- 2 0.0 2.0 42 42
- 2.5 0 1 cbr 1000 ------- 2 0.0 2.0 42 42
r 2.508 0 1 cbr 1000 ------- 2 0.0 2.0 41 41
+ 2.508 1 2 cbr 1000 ------- 2 0.0 2.0 41 41
- 2.538 1 2 cbr 1000 ------- 2 0.0 2.0 28 28
r 2.543 1 2 cbr 1000 ------- 2 0.0 2.0 26 26
+ 2.55 0 1 cbr 1000 ------- 2 0.0 2.0 43 43
- 2.55 0 1 cbr 1000 ------- 2 0.0 2.0 43 43
r 2.558 0 1 cbr 1000 ------- 2 0.0 2.0 42 42
+ 2.558 1 2 cbr 1000 ------- 2 0.0 2.0 42 42
+ 2.6 0 1 cbr 1000 ------- 2 0.0 2.0 44 44
- 2.6 0 1 cbr 1000 ------- 2 0.0 2.0 44 44
r 2.608 0 1 cbr 1000 ------- 2 0.0 2.0 43 43
+ 2.608 1 2 cbr 1000 ------- 2 0.0 2.0 43 43
d 2.608 1 2 cbr 1000 ------- 2 0.0 2.0 43 43
- 2.618 1 2 cbr 1000 ------- 2 0.0 2.0 29 29
r 2.623 1 2 cbr 1000 ------- 2 0.0 2.0 28 28
+ 2.65 0 1 cbr 1000 ------- 2 0.0 2.0 45 45
- 2.65 0 1 cbr 1000 ------- 2 0.0 2.0 45 45
r 2.658 0 1 cbr 1000 ------- 2 0.0 2.0 44 44
+ 2.658 1 2 cbr 1000 ------- 2 0.0 2.0 44 44
- 2.698 1 2 cbr 1000 ------- 2 0.0 2.0 31 31
+ 2.7 0 1 cbr 1000 ------- 2 0.0 2.0 46 46
- 2.7 0 1 cbr 1000 ------- 2 0.0 2.0 46 46
r 2.703 1 2 cbr 1000 ------- 2 0.0 2.0 29 29
r 2.708 0 1 cbr 1000 ------- 2 0.0 2.0 45 45
+ 2.708 1 2 cbr 1000 ------- 2 0.0 2.0 45 45
+ 2.75 0 1 cbr 1000 ------- 2 0.0 2.0 47 47
- 2.75 0 1 cbr 1000 ------- 2 0.0 2.0 47 47
r 2.758 0 1 cbr 1000 ------- 2 0.0 2.0 46 46
+ 2.758 1 2 cbr 1000 ------- 2 0.0 2.0 46 46
d 2.758 1 2 cbr 1000 ------- 2 0.0 2.0 46 46
- 2.778 1 2 cbr 1000 ------- 2 0.0 2.0 32 32
r 2.783 1 2 cbr 1000 ------- 2 0.0 2.0 31 31
+ 2.8 0 1 cbr 1000 ------- 2 0.0 2.0 48 48
- 2.8 0 1 cbr 1000 ------- 2 0.0 2.0 48 48
r 2.808 0 1 cbr 1000 ------- 2 0.0 2.0 47 47
+ 2.808 1 2 cbr 1000 ------- 2 0.0 2.0 47 47
+ 2.85 0 1 cbr 1000 ------- 2 0.0 2.0 49 49
- 2.85 0 1 cbr 1000 ------- 2 0.0 2.0 49 49
r 2.858 0 1 cbr 1000 ------- 2 0.0 2.0 48 48
+ 2.858 1 2 cbr 1000 ------- 2 0.0 2.0 48 48
d 2.858 1 2 cbr 1000 ------- 2 0.0 2.0 48 48
- 2.858 1 2 cbr 1000 ------- 2 0.0 2.0 34 34
r 2.863 1 2 cbr 1000 ------- 2 0.0 2.0 32 32
+ 2.9 0 1 cbr 1000 ------- 2 0.0 2.0 50 50
- 2.9 0 1 cbr 1000 ------- 2 0.0 2.0 50 50
r 2.908 0 1 cbr 1000 ------- 2 0.0 2.0 49 49
+ 2.908 1 2 cbr 1000 ------- 2 0.0 2.0 49 49
- 2.938 1 2 cbr 1000 ------- 2 0.0 2.0 36 36
r 2.943 1 2 cbr 1000 ------- 2 0.0 2.0 34 34
+ 2.95 0 1 cbr 1000 ------- 2 0.0 2.0 51 51
- 2.95 0 1 cbr 1000 ------- 2 0.0 2.0 51 51
r 2.958 0 1 cbr 1000 ------- 2 0.0 2.0 50 50
+ 2.958 1 2 cbr 1000 ------- 2 0.0 2.0 50 50
+ 3 0 1 cbr 1000 ------- 2 0.0 2.0 52 52
- 3 0 1 cbr 1000 ------- 2 0.0 2.0 52 52
r 3.008 0 1 cbr 1000 ------- 2 0.0 2.0 51 51
+ 3.008 1 2 cbr 1000 ------- 2 0.0 2.0 51 51
d 3.008 1 2 cbr 1000 ------- 2 0.0 2.0 51 51
- 3.018 1 2 cbr 1000 ------- 2 0.0 2.0 37 37
r 3.023 1 2 cbr 1000 ------- 2 0.0 2.0 36 36
+ 3.05 0 1 cbr 1000 ------- 2 0.0 2.0 53 53
- 3.05 0 1 cbr 1000 ------- 2 0.0 2.0 53 53
r 3.058 0 1 cbr 1000 ------- 2 0.0 2.0 52 52
+ 3.058 1 2 cbr 1000 ------- 2 0.0 2.0 52 52
- 3.098 1 2 cbr 1000 ------- 2 0.0 2.0 39 39
+ 3.1 0 1 cbr 1000 ------- 2 0.0 2.0 54 54
- 3.1 0 1 cbr 1000 ------- 2 0.0 2.0 54 54
r 3.103 1 2 cbr 1000 ------- 2 0.0 2.0 37 37
r 3.108 0 1 cbr 1000 ------- 2 0.0 2.0 53 53
+ 3.108 1 2 cbr 1000 ------- 2 0.0 2.0 53 53
+ 3.15 0 1 cbr 1000 ------- 2 0.0 2.0 55 55
- 3.15 0 1 cbr 1000 ------- 2 0.0 2.0 55 55
r 3.158 0 1 cbr 1000 ------- 2 0.0 2.0 54 54
+ 3.158 1 2 cbr 1000 ------- 2 0.0 2.0 54 54
d 3.158 1 2 cbr 1000 ------- 2 0.0 2.0 54 54
- 3.178 1 2 cbr 1000 ------- 2 0.0 2.0 41 41
r 3.183 1 2 cbr 1000 ------- 2 0.0 2.0 39 39
+ 3.2 0 1 cbr 1000 ------- 2 0.0 2.0 56 56
- 3.2 0 1 cbr 1000 ------- 2 0.0 2.0 56 56
r 3.208 0 1 cbr 1000 ------- 2 0.0 2.0 55 55
+ 3.208 1 2 cbr 1000 ------- 2 0.0 2.0 55 55
+ 3.25 0 1 cbr 1000 ------- 2 0.0 2.0 57 57
- 3.25 0 1 cbr 1000 ------- 2 0.0 2.0 57 57
r 3.258 0 1 cbr 1000 ------- 2 0.0 2.0 56 56
+ 3.258 1 2 cbr 1000 ------- 2 0.0 2.0 56 56
d 3.258 1 2 cbr 1000 ------- 2 0.0 2.0 56 56
- 3.258 1 2 cbr 1000 ------- 2 0.0 2.0 42 42
r 3.263 1 2 cbr 1000 ------- 2 0.0 2.0 41 41
+ 3.3 0 1 cbr 1000 ------- 2 0.0 2.0 58 58
- 3.3 0 1 cbr 1000 ------- 2 0.0 2.0 58 58
r 3.308 0 1 cbr 1000 ------- 2 0.0 2.0 57 57
+ 3.308 1 2 cbr 1000 ------- 2 0.0 2.0 57 57
- 3.338 1 2 cbr 1000 ------- 2 0.0 2.0 44 44
r 3.343 1 2 cbr 1000 ------- 2 0.0 2.0 42 42
+ 3.35 0 1 cbr 1000 ------- 2 0.0 2.0 59 59
- 3.35 0 1 cbr 1000 ------- 2 0.0 2.0 59 59
r 3.358 0 1 cbr 1000 ------- 2 0.0 2.0 58 58
+ 3.358 1 2 cbr 1000 ------- 2 0.0 2.0 58 58
+ 3.4 0 1 cbr 1000 ------- 2 0.0 2.0 60 60
- 3.4 0 1 cbr 1000 ------- 2 0.0 2.0 60 60
r 3.408 0 1 cbr 1000 ------- 2 0.0 2.0 59 59
+ 3.408 1 2 cbr 1000 ------- 2 0.0 2.0 59 59
d 3.408 1 2 cbr 1000 ------- 2 0.0 2.0 59 59
- 3.418 1 2 cbr 1000 ------- 2 0.0 2.0 45 45
r 3.423 1 2 cbr 1000 ------- 2 0.0 2.0 44 44
+ 3.45 0 1 cbr 1000 ------- 2 0.0 2.0 61 61
- 3.45 0 1 cbr 1000 ------- 2 0.0 2.0 61 61
r 3.458 0 1 cbr 1000 ------- 2 0.0 2.0 60 60
+ 3.458 1 2 cbr 1000 ------- 2 0.0 2.0 60 60
- 3.498 1 2 cbr 1000 ------- 2 0.0 2.0 47 47
+ 3.5 0 1 cbr 1000 ------- 2 0.0 2.0 62 62
- 3.5 0 1 cbr 1000 ------- 2 0.0 2.0 62 62
r 3.503 1 2 cbr 1000 ------- 2 0.0 2.0 45 45
r 3.508 0 1 cbr 1000 ------- 2 0.0 2.0 61 61
+ 3.508 1 2 cbr 1000 ------- 2 0.0 2.0 61 61
+ 3.55 0 1 cbr 1000 ------- 2 0.0 2.0 63 63
- 3.55 0 1 cbr 1000 ------- 2 0.0 2.0 63 63
r 3.558 0 1 cbr 1000 ------- 2 0.0 2.0 62 62
+ 3.558 1 2 cbr 1000 ------- 2 0.0 2.0 62 62
d 3.558 1 2 cbr 1000 ------- 2 0.0 2.0 62 62
- 3.578 1 2 cbr 1000 ------- 2 0.0 2.0 49 49
r 3.583 1 2 cbr 1000 ------- 2 0.0 2.0 47 47
+ 3.6 0 1 cbr 1000 ------- 2 0.0 2.0 64 64
- 3.6 0 1 cbr 1000 ------- 2 0.0 2.0 64 64
r 3.608 0 1 cbr 1000 ------- 2 0.0 2.0 63 63
+ 3.608 1 2 cbr 1000 ------- 2 0.0 2.0 63 63
+ 3.65 0 1 cbr 1000 ------- 2 0.0 2.0 65 65
- 3.65 0 1 cbr 1000 ------- 2 0.0 2.0 65 65
r 3.658 0 1 cbr 1000 ------- 2 0.0 2.0 64 64
+ 3.658 1 2 cbr 1000 ------- 2 0.0 2.0 64 64
d 3.658 1 2 cbr 1000 ------- 2 0.0 2.0 64 64
- 3.658 1 2 cbr 1000 ------- 2 0.0 2.0 50 50
r 3.663 1 2 cbr 1000 ------- 2 0.0 2.0 49 49
+ 3.7 0 1 cbr 1000 ------- 2 0.0 2.0 66 66
- 3.7 0 1 cbr 1000 ------- 2 0.0 2.0 66 66
r 3.708 0 1 cbr 1000 ------- 2 0.0 2.0 65 65
+ 3.708 1 2 cbr 1000 ------- 2 0.0 2.0 65 65
- 3.738 1 2 cbr 1000 ------- 2 0.0 2.0 52 52
r 3.743 1 2 cbr 1000 ------- 2 0.0 2.0 50 50
+ 3.75 0 1 cbr 1000 ------- 2 0.0 2.0 67 67
- 3.75 0 1 cbr 1000 ------- 2 0.0 2.0 67 67
r 3.758 0 1 cbr 1000 ------- 2 0.0 2.0 66 66
+ 3.758 1 2 cbr 1000 ------- 2 0.0 2.0 66 66
+ 3.8 0 1 cbr 1000 ------- 2 0.0 2.0 68 68
- 3.8 0 1 cbr 1000 ------- 2 0.0 2.0 68 68
r 3.808 0 1 cbr 1000 ------- 2 0.0 2.0 67 67
+ 3.808 1 2 cbr 1000 ------- 2 0.0 2.0 67 67
d 3.808 1 2 cbr 1000 ------- 2 0.0 2.0 67 67
- 3.818 1 2 cbr 1000 ------- 2 0.0 2.0 53 53
r 3.823 1 2 cbr 1000 ------- 2 0.0 2.0 52 52
+ 3.85 0 1 cbr 1000 ------- 2 0.0 2.0 69 69
- 3.85 0 1 cbr 1000 ------- 2 0.0 2.0 69 69
r 3.858 0 1 cbr 1000 ------- 2 0.0 2.0 68 68
+ 3.858 1 2 cbr 1000 ------- 2 0.0 2.0 68 68
- 3.898 1 2 cbr 1000 ------- 2 0.0 2.0 55 55
+ 3.9 0 1 cbr 1000 ------- 2 0.0 2.0 70 70
- 3.9 0 1 cbr 1000 ------- 2 0.0 2.0 70 70
r 3.903 1 2 cbr 1000 ------- 2 0.0 2.0 53 53
r 3.908 0 1 cbr 1000 ------- 2 0.0 2.0 69 69
+ 3.908 1 2 cbr 1000 ------- 2 0.0 2.0 69 69
+ 3.95 0 1 cbr 1000 ------- 2 0.0 2.0 71 71
- 3.95 0 1 cbr 1000 ------- 2 0.0 2.0 71 71
r 3.958 0 1 cbr 1000 ------- 2 0.0 2.0 70 70
+ 3.958 1 2 cbr 1000 ------- 2 0.0 2.0 70 70
d 3.958 1 2 cbr 1000 ------- 2 0.0 2.0 70 70
- 3.978 1 2 cbr 1000 ------- 2 0.0 2.0 57 57
r 3.983 1 2 cbr 1000 ------- 2 0.0 2.0 55 55
+ 4 0 1 cbr 1000 ------- 2 0.0 2.0 72 72
- 4 0 1 cbr 1000 ------- 2 0.0 2.0 72 72
r 4.008 0 1 cbr 1000 ------- 2 0.0 2.0 71 71
+ 4.008 1 2 cbr 1000 ------- 2 0.0 2.0 71 71
+ 4.05 0 1 cbr 1000 ------- 2 0.0 2.0 73 73
- 4.05 0 1 cbr 1000 ------- 2 0.0 2.0 73 73
r 4.058 0 1 cbr 1000 ------- 2 0.0 2.0 72 72
+ 4.058 1 2 cbr 1000 ------- 2 0.0 2.0 72 72
d 4.058 1 2 cbr 1000 ------- 2 0.0 2.0 72 72
- 4.058 1 2 cbr 1000 ------- 2 0.0 2.0 58 58
r 4.063 1 2 cbr 1000 ------- 2 0.0 2.0 57 57
+ 4.1 0 1 cbr 1000 ------- 2 0.0 2.0 74 74
- 4.1 0 1 cbr 1000 ------- 2 0.0 2.0 74 74
r 4.108 0 1 cbr 1000 ------- 2 0.0 2.0 73 73
+ 4.108 1 2 cbr 1000 ------- 2 0.0 2.0 73 73
- 4.138 1 2 cbr 1000 ------- 2 0.0 2.0 60 60
r 4.143 1 2 cbr 1000 ------- 2 0.0 2.0 58 58
+ 4.15 0 1 cbr 1000 ------- 2 0.0 2.0 75 75
- 4.15 0 1 cbr 1000 ------- 2 0.0 2.0 75 75
r 4.158 0 1 cbr 1000 ------- 2 0.0 2.0 74 74
+ 4.158 1 2 cbr 1000 ------- 2 0.0 2.0 74 74
+ 4.2 0 1 cbr 1000 ------- 2 0.0 2.0 76 76
- 4.2 0 1 cbr 1000 ------- 2 0.0 2.0 76 76
r 4.208 0 1 cbr 1000 ------- 2 0.0 2.0 75 75
+ 4.208 1 2 cbr 1000 ------- 2 0.0 2.0 75 75
d 4.208 1 2 cbr 1000 ------- 2 0.0 2.0 75 75
- 4.218 1 2 cbr 1000 ------- 2 0.0 2.0 61 61
r 4.223 1 2 cbr 1000 ------- 2 0.0 2.0 60 60
+ 4.25 0 1 cbr 1000 ------- 2 0.0 2.0 77 77
- 4.25 0 1 cbr 1000 ------- 2 0.0 2.0 77 77
r 4.258 0 1 cbr 1000 ------- 2 0.0 2.0 76 76
+ 4.258 1 2 cbr 1000 ------- 2 0.0 2.0 76 76
- 4.298 1 2 cbr 1000 ------- 2 0.0 2.0 63 63
+ 4.3 0 1 cbr 1000 ------- 2 0.0 2.0 78 78
- 4.3 0 1 cbr 1000 ------- 2 0.0 2.0 78 78
r 4.303 1 2 cbr 1000 ------- 2 0.0 2.0 61 61
r 4.308 0 1 cbr 1000 ------- 2 0.0 2.0 77 77
+ 4.308 1 2 cbr 1000 ------- 2 0.0 2.0 77 77
+ 4.35 0 1 cbr 1000 ------- 2 0.0 2.0 79 79
- 4.35 0 1 cbr 1000 ------- 2 0.0 2.0 79 79
r 4.358 0 1 cbr 1000 ------- 2 0.0 2.0 78 78
+ 4.358 1 2 cbr 1000 ------- 2 0.0 2.0 78 78
d 4.358 1 2 cbr 1000 ------- 2 0.0 2.0 78 78
- 4.378 1 2 cbr 1000 ------- 2 0.0 2.0 65 65
r 4.383 1 2 cbr 1000 ------- 2 0.0 2.0 63 63
+ 4.4 0 1 cbr 1000 ------- 2 0.0 2.0 80 80
- 4.4 0 1 cbr 1000 ------- 2 0.0 2.0 80 80
r 4.408 0 1 cbr 1000 ------- 2 0.0 2.0 79 79
+ 4.408 1 2 cbr 1000 ------- 2 0.0 2.0 79 79
+ 4.45 0 1 cbr 1000 ------- 2 0.0 2.0 81 81
- 4.45 0 1 cbr 1000 ------- 2 0.0 2.0 81 81
r 4.458 0 1 cbr 1000 ------- 2 0.0 2.0 80 80
+ 4.458 1 2 cbr 1000 ------- 2 0.0 2.0 80 80
d 4.458 1 2 cbr 1000 ------- 2 0.0 2.0 80 80
- 4.458 1 2 cbr 1000 ------- 2 0.0 2.0 66 66
r 4.463 1 2 cbr 1000 ------- 2 0.0 2.0 65 65
+ 4.5 0 1 cbr 1000 ------- 2 0.0 2.0 82 82
- 4.5 0 1 cbr 1000 ------- 2 0.0 2.0 82 82
r 4.508 0 1 cbr 1000 ------- 2 0.0 2.0 81 81
+ 4.508 1 2 cbr 1000 ------- 2 0.0 2.0 81 81
- 4.538 1 2 cbr 1000 ------- 2 0.0 2.0 68 68
r 4.543 1 2 cbr 1000 ------- 2 0.0 2.0 66 66
+ 4.55 0 1 cbr 1000 ------- 2 0.0 2.0 83 83
- 4.55 0 1 cbr 1000 ------- 2 0.0 2.0 83 83
r 4.558 0 1 cbr 1000 ------- 2 0.0 2.0 82 82
+ 4.558 1 2 cbr 1000 ------- 2 0.0 2.0 82 82
+ 4.6 0 1 cbr 1000 ------- 2 0.0 2.0 84 84
- 4.6 0 1 cbr 1000 ------- 2 0.0 2.0 84 84
r 4.608 0 1 cbr 1000 ------- 2 0.0 2.0 83 83
+ 4.608 1 2 cbr 1000 ------- 2 0.0 2.0 83 83
d 4.608 1 2 cbr 1000 ------- 2 0.0 2.0 83 83
- 4.618 1 2 cbr 1000 ------- 2 0.0 2.0 69 69
r 4.623 1 2 cbr 1000 ------- 2 0.0 2.0 68 68
+ 4.65 0 1 cbr 1000 ------- 2 0.0 2.0 85 85
- 4.65 0 1 cbr 1000 ------- 2 0.0 2.0 85 85
r 4.658 0 1 cbr 1000 ------- 2 0.0 2.0 84 84
+ 4.658 1 2 cbr 1000 ------- 2 0.0 2.0 84 84
- 4.698 1 2 cbr 1000 ------- 2 0.0 2.0 71 71
+ 4.7 0 1 cbr 1000 ------- 2 0.0 2.0 86 86
- 4.7 0 1 cbr 1000 ------- 2 0.0 2.0 86 86
r 4.703 1 2 cbr 1000 ------- 2 0.0 2.0 69 69
r 4.708 0 1 cbr 1000 ------- 2 0.0 2.0 85 85
+ 4.708 1 2 cbr 1000 ------- 2 0.0 2.0 85 85
+ 4.75 0 1 cbr 1000 ------- 2 0.0 2.0 87 87
- 4.75 0 1 cbr 1000 ------- 2 0.0 2.0 87 87
r 4.758 0 1 cbr 1000 ------- 2 0.0 2.0 86 86
+ 4.758 1 2 cbr 1000 ------- 2 0.0 2.0 86 86
d 4.758 1 2 cbr 1000 ------- 2 0.0 2.0 86 86
- 4.778 1 2 cbr 1000 ------- 2 0.0 2.0 73 73
r 4.783 1 2 cbr 1000 ------- 2 0.0 2.0 71 71
+ 4.8 0 1 cbr 1000 ------- 2 0.0 2.0 88 88
- 4.8 0 1 cbr 1000 ------- 2 0.0 2.0 88 88
r 4.808 0 1 cbr 1000 ------- 2 0.0 2.0 87 87
+ 4.808 1 2 cbr 1000 ------- 2 0.0 2.0 87 87
r 4.858 0 1 cbr 1000 ------- 2 0.0 2.0 88 88
+ 4.858 1 2 cbr 1000 ------- 2 0.0 2.0 88 88
d 4.858 1 2 cbr 1000 ------- 2 0.0 2.0 88 88
- 4.858 1 2 cbr 1000 ------- 2 0.0 2.0 74 74
r 4.863 1 2 cbr 1000 ------- 2 0.0 2.0 73 73
- 4.938 1 2 cbr 1000 ------- 2 0.0 2.0 76 76
r 4.943 1 2 cbr 1000 ------- 2 0.0 2.0 74 74
